ITEM: TIMESTEP
1000
ITEM: NUMBER OF ATOMS
1
ITEM: BOX BOUNDS xy xz yz ff ff pp
0.0000000000000000e+00 5.0000000000000000e+01 0.0000000000000000e+00
0.0000000000000000e+00 5.0000000000000000e+01 0.0000000000000000e+00
-5.0000000000000000e+00 5.0000000000000000e+00 0.0000000000000000e+00
ITEM: ATOMS id fy
3 -1.45014e-05
ITEM: TIMESTEP
1100
ITEM: NUMBER OF ATOMS
1
ITEM: BOX BOUNDS xy xz yz ff ff pp
0.0000000000000000e+00 5.0000000000000000e+01 0.0000000000000000e+00
0.0000000000000000e+00 5.0000000000000000e+01 0.0000000000000000e+00
-5.0000000000000000e+00 5.0000000000000000e+00 0.0000000000000000e+00
ITEM: ATOMS id fy
3 -24.798
ITEM: TIMESTEP
1200
ITEM: NUMBER OF ATOMS
1
ITEM: BOX BOUNDS xy xz yz ff ff pp
0.0000000000000000e+00 5.0000000000000000e+01 0.0000000000000000e+00
0.0000000000000000e+00 5.0000000000000000e+01 0.0000000000000000e+00
-5.0000000000000000e+00 5.0000000000000000e+00 0.0000000000000000e+00
ITEM: ATOMS id fy
3 19.3568
ITEM: TIMESTEP
1300
ITEM: NUMBER OF ATOMS
1
ITEM: BOX BOUNDS xy xz yz ff ff pp
0.0000000000000000e+00 5.0000000000000000e+01 0.0000000000000000e+00
0.0000000000000000e+00 5.0000000000000000e+01 0.0000000000000000e+00
-5.0000000000000000e+00 5.0000000000000000e+00 0.0000000000000000e+00
ITEM: ATOMS id fy
3 4.0936
ITEM: TIMESTEP
1400
ITEM: NUMBER OF ATOMS
1
ITEM: BOX BOUNDS xy xz yz ff ff pp
0.0000000000000000e+00 5.0000000000000000e+01 0.0000000000000000e+00
0.0000000000000000e+00 5.0000000000000000e+01 0.0000000000000000e+00
-5.0000000000000000e+00 5.0000000000000000e+00 0.0000000000000000e+00
ITEM: ATOMS id fy
3 17.2222
ITEM: TIMESTEP
1500
ITEM: NUMBER OF ATOMS
1
ITEM: BOX BOUNDS xy xz yz ff ff pp
0.0000000000000000e+00 5.0000000000000000e+01 0.0000000000000000e+00
0.0000000000000000e+00 5.0000000000000000e+01 0.0000000000000000e+00
-5.0000000000000000e+00 5.0000000000000000e+00 0.0000000000000000e+00
ITEM: ATOMS id fy
3 5.04764
ITEM: TIMESTEP
1600
ITEM: NUMBER OF ATOMS
1
ITEM: BOX BOUNDS xy xz yz ff ff pp
0.0000000000000000e+00 5.0000000000000000e+01 0.0000000000000000e+00
0.0000000000000000e+00 5.0000000000000000e+01 0.0000000000000000e+00
-5.0000000000000000e+00 5.0000000000000000e+00 0.0000000000000000e+00
ITEM: ATOMS id fy
3 -21.5914
ITEM: TIMESTEP
1700
ITEM: NUMBER OF ATOMS
1
ITEM: BOX BOUNDS xy xz yz ff ff pp
0.0000000000000000e+00 5.0000000000000000e+01 0.0000000000000000e+00
0.0000000000000000e+00 5.0000000000000000e+01 0.0000000000000000e+00
-5.0000000000000000e+00 5.0000000000000000e+00 0.0000000000000000e+00
ITEM: ATOMS id fy
3 10.5448
ITEM: TIMESTEP
1800
ITEM: NUMBER OF ATOMS
1
ITEM: BOX BOUNDS xy xz yz ff ff pp
0.0000000000000000e+00 5.0000000000000000e+01 0.0000000000000000e+00
0.0000000000000000e+00 5.0000000000000000e+01 0.0000000000000000e+00
-5.0000000000000000e+00 5.0000000000000000e+00 0.0000000000000000e+00
ITEM: ATOMS id fy
3 -13.704
ITEM: TIMESTEP
1900
ITEM: NUMBER OF ATOMS
1
ITEM: BOX BOUNDS xy xz yz ff ff pp
0.0000000000000000e+00 5.0000000000000000e+01 0.0000000000000000e+00
0.0000000000000000e+00 5.0000000000000000e+01 0.0000000000000000e+00
-5.0000000000000000e+00 5.0000000000000000e+00 0.0000000000000000e+00
ITEM: ATOMS id fy
3 -4.48602
ITEM: TIMESTEP
2000
ITEM: NUMBER OF ATOMS
1
ITEM: BOX BOUNDS xy xz yz ff ff pp
0.0000000000000000e+00 5.0000000000000000e+01 0.0000000000000000e+00
0.0000000000000000e+00 5.0000000000000000e+01 0.0000000000000000e+00
-5.0000000000000000e+00 5.0000000000000000e+00 0.0000000000000000e+00
ITEM: ATOMS id fy
3 8.74759
ITEM: TIMESTEP
2100
ITEM: NUMBER OF ATOMS
1
ITEM: BOX BOUNDS xy xz yz ff ff pp
0.0000000000000000e+00 5.0000000000000000e+01 0.0000000000000000e+00
0.0000000000000000e+00 5.0000000000000000e+01 0.0000000000000000e+00
-5.0000000000000000e+00 5.0000000000000000e+00 0.0000000000000000e+00
ITEM: ATOMS id fy
3 6.57289
ITEM: TIMESTEP
2200
ITEM: NUMBER OF ATOMS
1
ITEM: BOX BOUNDS xy xz yz ff ff pp
0.0000000000000000e+00 5.0000000000000000e+01 0.0000000000000000e+00
0.0000000000000000e+00 5.0000000000000000e+01 0.0000000000000000e+00
-5.0000000000000000e+00 5.0000000000000000e+00 0.0000000000000000e+00
ITEM: ATOMS id fy
3 0.288351
ITEM: TIMESTEP
2300
ITEM: NUMBER OF ATOMS
1
ITEM: BOX BOUNDS xy xz yz ff ff pp
0.0000000000000000e+00 5.0000000000000000e+01 0.0000000000000000e+00
0.0000000000000000e+00 5.0000000000000000e+01 0.0000000000000000e+00
-5.0000000000000000e+00 5.0000000000000000e+00 0.0000000000000000e+00
ITEM: ATOMS id fy
3 2.59087
ITEM: TIMESTEP
2400
ITEM: NUMBER OF ATOMS
1
ITEM: BOX BOUNDS xy xz yz ff ff pp
0.0000000000000000e+00 5.0000000000000000e+01 0.0000000000000000e+00
0.0000000000000000e+00 5.0000000000000000e+01 0.0000000000000000e+00
-5.0000000000000000e+00 5.0000000000000000e+00 0.0000000000000000e+00
ITEM: ATOMS id fy
3 -2.34436
ITEM: TIMESTEP
2500
ITEM: NUMBER OF ATOMS
1
ITEM: BOX BOUNDS xy xz yz ff ff pp
0.0000000000000000e+00 5.0000000000000000e+01 0.0000000000000000e+00
0.0000000000000000e+00 5.0000000000000000e+01 0.0000000000000000e+00
-5.0000000000000000e+00 5.0000000000000000e+00 0.0000000000000000e+00
ITEM: ATOMS id fy
3 -13.3084
ITEM: TIMESTEP
2600
ITEM: NUMBER OF ATOMS
1
ITEM: BOX BOUNDS xy xz yz ff ff pp
0.0000000000000000e+00 5.0000000000000000e+01 0.0000000000000000e+00
0.0000000000000000e+00 5.0000000000000000e+01 0.0000000000000000e+00
-5.0000000000000000e+00 5.0000000000000000e+00 0.0000000000000000e+00
ITEM: ATOMS id fy
3 0.257719
ITEM: TIMESTEP
2700
ITEM: NUMBER OF ATOMS
1
ITEM: BOX BOUNDS xy xz yz ff ff pp
0.0000000000000000e+00 5.0000000000000000e+01 0.0000000000000000e+00
0.0000000000000000e+00 5.0000000000000000e+01 0.0000000000000000e+00
-5.0000000000000000e+00 5.0000000000000000e+00 0.0000000000000000e+00
ITEM: ATOMS id fy
3 0.342963
ITEM: TIMESTEP
2800
ITEM: NUMBER OF ATOMS
1
ITEM: BOX BOUNDS xy xz yz ff ff pp
0.0000000000000000e+00 5.0000000000000000e+01 0.0000000000000000e+00
0.0000000000000000e+00 5.0000000000000000e+01 0.0000000000000000e+00
-5.0000000000000000e+00 5.0000000000000000e+00 0.0000000000000000e+00
ITEM: ATOMS id fy
3 -0.485961
ITEM: TIMESTEP
2900
ITEM: NUMBER OF ATOMS
1
ITEM: BOX BOUNDS xy xz yz ff ff pp
0.0000000000000000e+00 5.0000000000000000e+01 0.0000000000000000e+00
0.0000000000000000e+00 5.0000000000000000e+01 0.0000000000000000e+00
-5.0000000000000000e+00 5.0000000000000000e+00 0.0000000000000000e+00
ITEM: ATOMS id fy
3 2.56539
ITEM: TIMESTEP
3000
ITEM: NUMBER OF ATOMS
1
ITEM: BOX BOUNDS xy xz yz ff ff pp
0.0000000000000000e+00 5.0000000000000000e+01 0.0000000000000000e+00
0.0000000000000000e+00 5.0000000000000000e+01 0.0000000000000000e+00
-5.0000000000000000e+00 5.0000000000000000e+00 0.0000000000000000e+00
ITEM: ATOMS id fy
3 0.740154
ITEM: TIMESTEP
3100
ITEM: NUMBER OF ATOMS
1
ITEM: BOX BOUNDS xy xz yz ff ff pp
0.0000000000000000e+00 5.0000000000000000e+01 0.0000000000000000e+00
0.0000000000000000e+00 5.0000000000000000e+01 0.0000000000000000e+00
-5.0000000000000000e+00 5.0000000000000000e+00 0.0000000000000000e+00
ITEM: ATOMS id fy
3 0.317534
ITEM: TIMESTEP
3200
ITEM: NUMBER OF ATOMS
1
ITEM: BOX BOUNDS xy xz yz ff ff pp
0.0000000000000000e+00 5.0000000000000000e+01 0.0000000000000000e+00
0.0000000000000000e+00 5.0000000000000000e+01 0.0000000000000000e+00
-5.0000000000000000e+00 5.0000000000000000e+00 0.0000000000000000e+00
ITEM: ATOMS id fy
3 -1.30263
ITEM: TIMESTEP
3300
ITEM: NUMBER OF ATOMS
1
ITEM: BOX BOUNDS xy xz yz ff ff pp
0.0000000000000000e+00 5.0000000000000000e+01 0.0000000000000000e+00
0.0000000000000000e+00 5.0000000000000000e+01 0.0000000000000000e+00
-5.0000000000000000e+00 5.0000000000000000e+00 0.0000000000000000e+00
ITEM: ATOMS id fy
3 -1.10067
ITEM: TIMESTEP
3400
ITEM: NUMBER OF ATOMS
1
ITEM: BOX BOUNDS xy xz yz ff ff pp
0.0000000000000000e+00 5.0000000000000000e+01 0.0000000000000000e+00
0.0000000000000000e+00 5.0000000000000000e+01 0.0000000000000000e+00
-5.0000000000000000e+00 5.0000000000000000e+00 0.0000000000000000e+00
ITEM: ATOMS id fy
3 -0.422043
ITEM: TIMESTEP
3500
ITEM: NUMBER OF ATOMS
1
ITEM: BOX BOUNDS xy xz yz ff ff pp
0.0000000000000000e+00 5.0000000000000000e+01 0.0000000000000000e+00
0.0000000000000000e+00 5.0000000000000000e+01 0.0000000000000000e+00
-5.0000000000000000e+00 5.0000000000000000e+00 0.0000000000000000e+00
ITEM: ATOMS id fy
3 0.139973
ITEM: TIMESTEP
3600
ITEM: NUMBER OF ATOMS
1
ITEM: BOX BOUNDS xy xz yz ff ff pp
0.0000000000000000e+00 5.0000000000000000e+01 0.0000000000000000e+00
0.0000000000000000e+00 5.0000000000000000e+01 0.0000000000000000e+00
-5.0000000000000000e+00 5.0000000000000000e+00 0.0000000000000000e+00
ITEM: ATOMS id fy
3 0.748967
ITEM: TIMESTEP
3700
ITEM: NUMBER OF ATOMS
1
ITEM: BOX BOUNDS xy xz yz ff ff pp
0.0000000000000000e+00 5.0000000000000000e+01 0.0000000000000000e+00
0.0000000000000000e+00 5.0000000000000000e+01 0.0000000000000000e+00
-5.0000000000000000e+00 5.0000000000000000e+00 0.0000000000000000e+00
ITEM: ATOMS id fy
3 0.844531
ITEM: TIMESTEP
3800
ITEM: NUMBER OF ATOMS
1
ITEM: BOX BOUNDS xy xz yz ff ff pp
0.0000000000000000e+00 5.0000000000000000e+01 0.0000000000000000e+00
0.0000000000000000e+00 5.0000000000000000e+01 0.0000000000000000e+00
-5.0000000000000000e+00 5.0000000000000000e+00 0.0000000000000000e+00
ITEM: ATOMS id fy
3 0.381432
ITEM: TIMESTEP
3900
ITEM: NUMBER OF ATOMS
1
ITEM: BOX BOUNDS xy xz yz ff ff pp
0.0000000000000000e+00 5.0000000000000000e+01 0.0000000000000000e+00
0.0000000000000000e+00 5.0000000000000000e+01 0.0000000000000000e+00
-5.0000000000000000e+00 5.0000000000000000e+00 0.0000000000000000e+00
ITEM: ATOMS id fy
3 -0.197359
ITEM: TIMESTEP
4000
ITEM: NUMBER OF ATOMS
1
ITEM: BOX BOUNDS xy xz yz ff ff pp
0.0000000000000000e+00 5.0000000000000000e+01 0.0000000000000000e+00
0.0000000000000000e+00 5.0000000000000000e+01 0.0000000000000000e+00
-5.0000000000000000e+00 5.0000000000000000e+00 0.0000000000000000e+00
ITEM: ATOMS id fy
3 -0.568142
ITEM: TIMESTEP
4100
ITEM: NUMBER OF ATOMS
1
ITEM: BOX BOUNDS xy xz yz ff ff pp
0.0000000000000000e+00 5.0000000000000000e+01 0.0000000000000000e+00
0.0000000000000000e+00 5.0000000000000000e+01 0.0000000000000000e+00
-5.0000000000000000e+00 5.0000000000000000e+00 0.0000000000000000e+00
ITEM: ATOMS id fy
3 -1.26275
ITEM: TIMESTEP
4200
ITEM: NUMBER OF ATOMS
1
ITEM: BOX BOUNDS xy xz yz ff ff pp
0.0000000000000000e+00 5.0000000000000000e+01 0.0000000000000000e+00
0.0000000000000000e+00 5.0000000000000000e+01 0.0000000000000000e+00
-5.0000000000000000e+00 5.0000000000000000e+00 0.0000000000000000e+00
ITEM: ATOMS id fy
3 0.418973
ITEM: TIMESTEP
4300
ITEM: NUMBER OF ATOMS
1
ITEM: BOX BOUNDS xy xz yz ff ff pp
0.0000000000000000e+00 5.0000000000000000e+01 0.0000000000000000e+00
0.0000000000000000e+00 5.0000000000000000e+01 0.0000000000000000e+00
-5.0000000000000000e+00 5.0000000000000000e+00 0.0000000000000000e+00
ITEM: ATOMS id fy
3 -0.432252
ITEM: TIMESTEP
4400
ITEM: NUMBER OF ATOMS
1
ITEM: BOX BOUNDS xy xz yz ff ff pp
0.0000000000000000e+00 5.0000000000000000e+01 0.0000000000000000e+00
0.0000000000000000e+00 5.0000000000000000e+01 0.0000000000000000e+00
-5.0000000000000000e+00 5.0000000000000000e+00 0.0000000000000000e+00
ITEM: ATOMS id fy
3 0.210647
ITEM: TIMESTEP
4500
ITEM: NUMBER OF ATOMS
1
ITEM: BOX BOUNDS xy xz yz ff ff pp
0.0000000000000000e+00 5.0000000000000000e+01 0.0000000000000000e+00
0.0000000000000000e+00 5.0000000000000000e+01 0.0000000000000000e+00
-5.0000000000000000e+00 5.0000000000000000e+00 0.0000000000000000e+00
ITEM: ATOMS id fy
3 0.363307
ITEM: TIMESTEP
4600
ITEM: NUMBER OF ATOMS
1
ITEM: BOX BOUNDS xy xz yz ff ff pp
0.0000000000000000e+00 5.0000000000000000e+01 0.0000000000000000e+00
0.0000000000000000e+00 5.0000000000000000e+01 0.0000000000000000e+00
-5.0000000000000000e+00 5.0000000000000000e+00 0.0000000000000000e+00
ITEM: ATOMS id fy
3 -0.130489
ITEM: TIMESTEP
4700
ITEM: NUMBER OF ATOMS
1
ITEM: BOX BOUNDS xy xz yz ff ff pp
0.0000000000000000e+00 5.0000000000000000e+01 0.0000000000000000e+00
0.0000000000000000e+00 5.0000000000000000e+01 0.0000000000000000e+00
-5.0000000000000000e+00 5.0000000000000000e+00 0.0000000000000000e+00
ITEM: ATOMS id fy
3 -0.18028
ITEM: TIMESTEP
4800
ITEM: NUMBER OF ATOMS
1
ITEM: BOX BOUNDS xy xz yz ff ff pp
0.0000000000000000e+00 5.0000000000000000e+01 0.0000000000000000e+00
0.0000000000000000e+00 5.0000000000000000e+01 0.0000000000000000e+00
-5.0000000000000000e+00 5.0000000000000000e+00 0.0000000000000000e+00
ITEM: ATOMS id fy
3 -0.235809
ITEM: TIMESTEP
4900
ITEM: NUMBER OF ATOMS
1
ITEM: BOX BOUNDS xy xz yz ff ff pp
0.0000000000000000e+00 5.0000000000000000e+01 0.0000000000000000e+00
0.0000000000000000e+00 5.0000000000000000e+01 0.0000000000000000e+00
-5.0000000000000000e+00 5.0000000000000000e+00 0.0000000000000000e+00
ITEM: ATOMS id fy
3 -0.181429
ITEM: TIMESTEP
5000
ITEM: NUMBER OF ATOMS
1
ITEM: BOX BOUNDS xy xz yz ff ff pp
0.0000000000000000e+00 5.0000000000000000e+01 0.0000000000000000e+00
0.0000000000000000e+00 5.0000000000000000e+01 0.0000000000000000e+00
-5.0000000000000000e+00 5.0000000000000000e+00 0.0000000000000000e+00
ITEM: ATOMS id fy
3 0.0136071
ITEM: TIMESTEP
5100
ITEM: NUMBER OF ATOMS
1
ITEM: BOX BOUNDS xy xz yz ff ff pp
0.0000000000000000e+00 5.0000000000000000e+01 0.0000000000000000e+00
0.0000000000000000e+00 5.0000000000000000e+01 0.0000000000000000e+00
-5.0000000000000000e+00 5.0000000000000000e+00 0.0000000000000000e+00
ITEM: ATOMS id fy
3 0.145943
ITEM: TIMESTEP
5200
ITEM: NUMBER OF ATOMS
1
ITEM: BOX BOUNDS xy xz yz ff ff pp
0.0000000000000000e+00 5.0000000000000000e+01 0.0000000000000000e+00
0.0000000000000000e+00 5.0000000000000000e+01 0.0000000000000000e+00
-5.0000000000000000e+00 5.0000000000000000e+00 0.0000000000000000e+00
ITEM: ATOMS id fy
3 0.211463
ITEM: TIMESTEP
5300
ITEM: NUMBER OF ATOMS
1
ITEM: BOX BOUNDS xy xz yz ff ff pp
0.0000000000000000e+00 5.0000000000000000e+01 0.0000000000000000e+00
0.0000000000000000e+00 5.0000000000000000e+01 0.0000000000000000e+00
-5.0000000000000000e+00 5.0000000000000000e+00 0.0000000000000000e+00
ITEM: ATOMS id fy
3 0.171817
ITEM: TIMESTEP
5400
ITEM: NUMBER OF ATOMS
1
ITEM: BOX BOUNDS xy xz yz ff ff pp
0.0000000000000000e+00 5.0000000000000000e+01 0.0000000000000000e+00
0.0000000000000000e+00 5.0000000000000000e+01 0.0000000000000000e+00
-5.0000000000000000e+00 5.0000000000000000e+00 0.0000000000000000e+00
ITEM: ATOMS id fy
3 0.0714687
ITEM: TIMESTEP
5500
ITEM: NUMBER OF ATOMS
1
ITEM: BOX BOUNDS xy xz yz ff ff pp
0.0000000000000000e+00 5.0000000000000000e+01 0.0000000000000000e+00
0.0000000000000000e+00 5.0000000000000000e+01 0.0000000000000000e+00
-5.0000000000000000e+00 5.0000000000000000e+00 0.0000000000000000e+00
ITEM: ATOMS id fy
3 -0.0144395
ITEM: TIMESTEP
5600
ITEM: NUMBER OF ATOMS
1
ITEM: BOX BOUNDS xy xz yz ff ff pp
0.0000000000000000e+00 5.0000000000000000e+01 0.0000000000000000e+00
0.0000000000000000e+00 5.0000000000000000e+01 0.0000000000000000e+00
-5.0000000000000000e+00 5.0000000000000000e+00 0.0000000000000000e+00
ITEM: ATOMS id fy
3 -0.0516843
ITEM: TIMESTEP
5700
ITEM: NUMBER OF ATOMS
1
ITEM: BOX BOUNDS xy xz yz ff ff pp
0.0000000000000000e+00 5.0000000000000000e+01 0.0000000000000000e+00
0.0000000000000000e+00 5.0000000000000000e+01 0.0000000000000000e+00
-5.0000000000000000e+00 5.0000000000000000e+00 0.0000000000000000e+00
ITEM: ATOMS id fy
3 -0.0296772
ITEM: TIMESTEP
5800
ITEM: NUMBER OF ATOMS
1
ITEM: BOX BOUNDS xy xz yz ff ff pp
0.0000000000000000e+00 5.0000000000000000e+01 0.0000000000000000e+00
0.0000000000000000e+00 5.0000000000000000e+01 0.0000000000000000e+00
-5.0000000000000000e+00 5.0000000000000000e+00 0.0000000000000000e+00
ITEM: ATOMS id fy
3 0.0178417
ITEM: TIMESTEP
5900
ITEM: NUMBER OF ATOMS
1
ITEM: BOX BOUNDS xy xz yz ff ff pp
0.0000000000000000e+00 5.0000000000000000e+01 0.0000000000000000e+00
0.0000000000000000e+00 5.0000000000000000e+01 0.0000000000000000e+00
-5.0000000000000000e+00 5.0000000000000000e+00 0.0000000000000000e+00
ITEM: ATOMS id fy
3 0.0491707
ITEM: TIMESTEP
6000
ITEM: NUMBER OF ATOMS
1
ITEM: BOX BOUNDS xy xz yz ff ff pp
0.0000000000000000e+00 5.0000000000000000e+01 0.0000000000000000e+00
0.0000000000000000e+00 5.0000000000000000e+01 0.0000000000000000e+00
-5.0000000000000000e+00 5.0000000000000000e+00 0.0000000000000000e+00
ITEM: ATOMS id fy
3 0.0426977
ITEM: TIMESTEP
6100
ITEM: NUMBER OF ATOMS
1
ITEM: BOX BOUNDS xy xz yz ff ff pp
0.0000000000000000e+00 5.0000000000000000e+01 0.0000000000000000e+00
0.0000000000000000e+00 5.0000000000000000e+01 0.0000000000000000e+00
-5.0000000000000000e+00 5.0000000000000000e+00 0.0000000000000000e+00
ITEM: ATOMS id fy
3 0.00146643
ITEM: TIMESTEP
6200
ITEM: NUMBER OF ATOMS
1
ITEM: BOX BOUNDS xy xz yz ff ff pp
0.0000000000000000e+00 5.0000000000000000e+01 0.0000000000000000e+00
0.0000000000000000e+00 5.0000000000000000e+01 0.0000000000000000e+00
-5.0000000000000000e+00 5.0000000000000000e+00 0.0000000000000000e+00
ITEM: ATOMS id fy
3 -0.0506453
ITEM: TIMESTEP
6300
ITEM: NUMBER OF ATOMS
1
ITEM: BOX BOUNDS xy xz yz ff ff pp
0.0000000000000000e+00 5.0000000000000000e+01 0.0000000000000000e+00
0.0000000000000000e+00 5.0000000000000000e+01 0.0000000000000000e+00
-5.0000000000000000e+00 5.0000000000000000e+00 0.0000000000000000e+00
ITEM: ATOMS id fy
3 -0.597493
ITEM: TIMESTEP
6400
ITEM: NUMBER OF ATOMS
1
ITEM: BOX BOUNDS xy xz yz ff ff pp
0.0000000000000000e+00 5.0000000000000000e+01 0.0000000000000000e+00
0.0000000000000000e+00 5.0000000000000000e+01 0.0000000000000000e+00
-5.0000000000000000e+00 5.0000000000000000e+00 0.0000000000000000e+00
ITEM: ATOMS id fy
3 -0.0312773
ITEM: TIMESTEP
6500
ITEM: NUMBER OF ATOMS
1
ITEM: BOX BOUNDS xy xz yz ff ff pp
0.0000000000000000e+00 5.0000000000000000e+01 0.0000000000000000e+00
0.0000000000000000e+00 5.0000000000000000e+01 0.0000000000000000e+00
-5.0000000000000000e+00 5.0000000000000000e+00 0.0000000000000000e+00
ITEM: ATOMS id fy
3 -0.00753759
ITEM: TIMESTEP
6600
ITEM: NUMBER OF ATOMS
1
ITEM: BOX BOUNDS xy xz yz ff ff pp
0.0000000000000000e+00 5.0000000000000000e+01 0.0000000000000000e+00
0.0000000000000000e+00 5.0000000000000000e+01 0.0000000000000000e+00
-5.0000000000000000e+00 5.0000000000000000e+00 0.0000000000000000e+00
ITEM: ATOMS id fy
3 -0.301758
ITEM: TIMESTEP
6700
ITEM: NUMBER OF ATOMS
1
ITEM: BOX BOUNDS xy xz yz ff ff pp
0.0000000000000000e+00 5.0000000000000000e+01 0.0000000000000000e+00
0.0000000000000000e+00 5.0000000000000000e+01 0.0000000000000000e+00
-5.0000000000000000e+00 5.0000000000000000e+00 0.0000000000000000e+00
ITEM: ATOMS id fy
3 0.17052
ITEM: TIMESTEP
6800
ITEM: NUMBER OF ATOMS
1
ITEM: BOX BOUNDS xy xz yz ff ff pp
0.0000000000000000e+00 5.0000000000000000e+01 0.0000000000000000e+00
0.0000000000000000e+00 5.0000000000000000e+01 0.0000000000000000e+00
-5.0000000000000000e+00 5.0000000000000000e+00 0.0000000000000000e+00
ITEM: ATOMS id fy
3 0.0521455
ITEM: TIMESTEP
6900
ITEM: NUMBER OF ATOMS
1
ITEM: BOX BOUNDS xy xz yz ff ff pp
0.0000000000000000e+00 5.0000000000000000e+01 0.0000000000000000e+00
0.0000000000000000e+00 5.0000000000000000e+01 0.0000000000000000e+00
-5.0000000000000000e+00 5.0000000000000000e+00 0.0000000000000000e+00
ITEM: ATOMS id fy
3 -0.0387932
ITEM: TIMESTEP
7000
ITEM: NUMBER OF ATOMS
1
ITEM: BOX BOUNDS xy xz yz ff ff pp
0.0000000000000000e+00 5.0000000000000000e+01 0.0000000000000000e+00
0.0000000000000000e+00 5.0000000000000000e+01 0.0000000000000000e+00
-5.0000000000000000e+00 5.0000000000000000e+00 0.0000000000000000e+00
ITEM: ATOMS id fy
3 0.0488799
ITEM: TIMESTEP
7100
ITEM: NUMBER OF ATOMS
1
ITEM: BOX BOUNDS xy xz yz ff ff pp
0.0000000000000000e+00 5.0000000000000000e+01 0.0000000000000000e+00
0.0000000000000000e+00 5.0000000000000000e+01 0.0000000000000000e+00
-5.0000000000000000e+00 5.0000000000000000e+00 0.0000000000000000e+00
ITEM: ATOMS id fy
3 0.110513
ITEM: TIMESTEP
7200
ITEM: NUMBER OF ATOMS
1
ITEM: BOX BOUNDS xy xz yz ff ff pp
0.0000000000000000e+00 5.0000000000000000e+01 0.0000000000000000e+00
0.0000000000000000e+00 5.0000000000000000e+01 0.0000000000000000e+00
-5.0000000000000000e+00 5.0000000000000000e+00 0.0000000000000000e+00
ITEM: ATOMS id fy
3 -0.301624
ITEM: TIMESTEP
7300
ITEM: NUMBER OF ATOMS
1
ITEM: BOX BOUNDS xy xz yz ff ff pp
0.0000000000000000e+00 5.0000000000000000e+01 0.0000000000000000e+00
0.0000000000000000e+00 5.0000000000000000e+01 0.0000000000000000e+00
-5.0000000000000000e+00 5.0000000000000000e+00 0.0000000000000000e+00
ITEM: ATOMS id fy
3 0.429539
ITEM: TIMESTEP
7400
ITEM: NUMBER OF ATOMS
1
ITEM: BOX BOUNDS xy xz yz ff ff pp
0.0000000000000000e+00 5.0000000000000000e+01 0.0000000000000000e+00
0.0000000000000000e+00 5.0000000000000000e+01 0.0000000000000000e+00
-5.0000000000000000e+00 5.0000000000000000e+00 0.0000000000000000e+00
ITEM: ATOMS id fy
3 -0.236398
ITEM: TIMESTEP
7500
ITEM: NUMBER OF ATOMS
1
ITEM: BOX BOUNDS xy xz yz ff ff pp
0.0000000000000000e+00 5.0000000000000000e+01 0.0000000000000000e+00
0.0000000000000000e+00 5.0000000000000000e+01 0.0000000000000000e+00
-5.0000000000000000e+00 5.0000000000000000e+00 0.0000000000000000e+00
ITEM: ATOMS id fy
3 -0.31486
ITEM: TIMESTEP
7600
ITEM: NUMBER OF ATOMS
1
ITEM: BOX BOUNDS xy xz yz ff ff pp
0.0000000000000000e+00 5.0000000000000000e+01 0.0000000000000000e+00
0.0000000000000000e+00 5.0000000000000000e+01 0.0000000000000000e+00
-5.0000000000000000e+00 5.0000000000000000e+00 0.0000000000000000e+00
ITEM: ATOMS id fy
3 -0.0626557
ITEM: TIMESTEP
7700
ITEM: NUMBER OF ATOMS
1
ITEM: BOX BOUNDS xy xz yz ff ff pp
0.0000000000000000e+00 5.0000000000000000e+01 0.0000000000000000e+00
0.0000000000000000e+00 5.0000000000000000e+01 0.0000000000000000e+00
-5.0000000000000000e+00 5.0000000000000000e+00 0.0000000000000000e+00
ITEM: ATOMS id fy
3 -0.148111
ITEM: TIMESTEP
7800
ITEM: NUMBER OF ATOMS
1
ITEM: BOX BOUNDS xy xz yz ff ff pp
0.0000000000000000e+00 5.0000000000000000e+01 0.0000000000000000e+00
0.0000000000000000e+00 5.0000000000000000e+01 0.0000000000000000e+00
-5.0000000000000000e+00 5.0000000000000000e+00 0.0000000000000000e+00
ITEM: ATOMS id fy
3 -0.0548239
ITEM: TIMESTEP
7900
ITEM: NUMBER OF ATOMS
1
ITEM: BOX BOUNDS xy xz yz ff ff pp
0.0000000000000000e+00 5.0000000000000000e+01 0.0000000000000000e+00
0.0000000000000000e+00 5.0000000000000000e+01 0.0000000000000000e+00
-5.0000000000000000e+00 5.0000000000000000e+00 0.0000000000000000e+00
ITEM: ATOMS id fy
3 0.0532793
ITEM: TIMESTEP
8000
ITEM: NUMBER OF ATOMS
1
ITEM: BOX BOUNDS xy xz yz ff ff pp
0.0000000000000000e+00 5.0000000000000000e+01 0.0000000000000000e+00
0.0000000000000000e+00 5.0000000000000000e+01 0.0000000000000000e+00
-5.0000000000000000e+00 5.0000000000000000e+00 0.0000000000000000e+00
ITEM: ATOMS id fy
3 -0.0374867
ITEM: TIMESTEP
8100
ITEM: NUMBER OF ATOMS
1
ITEM: BOX BOUNDS xy xz yz ff ff pp
0.0000000000000000e+00 5.0000000000000000e+01 0.0000000000000000e+00
0.0000000000000000e+00 5.0000000000000000e+01 0.0000000000000000e+00
-5.0000000000000000e+00 5.0000000000000000e+00 0.0000000000000000e+00
ITEM: ATOMS id fy
3 -0.023981
ITEM: TIMESTEP
8200
ITEM: NUMBER OF ATOMS
1
ITEM: BOX BOUNDS xy xz yz ff ff pp
0.0000000000000000e+00 5.0000000000000000e+01 0.0000000000000000e+00
0.0000000000000000e+00 5.0000000000000000e+01 0.0000000000000000e+00
-5.0000000000000000e+00 5.0000000000000000e+00 0.0000000000000000e+00
ITEM: ATOMS id fy
3 -0.0152436
ITEM: TIMESTEP
8300
ITEM: NUMBER OF ATOMS
1
ITEM: BOX BOUNDS xy xz yz ff ff pp
0.0000000000000000e+00 5.0000000000000000e+01 0.0000000000000000e+00
0.0000000000000000e+00 5.0000000000000000e+01 0.0000000000000000e+00
-5.0000000000000000e+00 5.0000000000000000e+00 0.0000000000000000e+00
ITEM: ATOMS id fy
3 -0.0790879
ITEM: TIMESTEP
8400
ITEM: NUMBER OF ATOMS
1
ITEM: BOX BOUNDS xy xz yz ff ff pp
0.0000000000000000e+00 5.0000000000000000e+01 0.0000000000000000e+00
0.0000000000000000e+00 5.0000000000000000e+01 0.0000000000000000e+00
-5.0000000000000000e+00 5.0000000000000000e+00 0.0000000000000000e+00
ITEM: ATOMS id fy
3 0.0700623
ITEM: TIMESTEP
8500
ITEM: NUMBER OF ATOMS
1
ITEM: BOX BOUNDS xy xz yz ff ff pp
0.0000000000000000e+00 5.0000000000000000e+01 0.0000000000000000e+00
0.0000000000000000e+00 5.0000000000000000e+01 0.0000000000000000e+00
-5.0000000000000000e+00 5.0000000000000000e+00 0.0000000000000000e+00
ITEM: ATOMS id fy
3 -0.0528347
ITEM: TIMESTEP
8600
ITEM: NUMBER OF ATOMS
1
ITEM: BOX BOUNDS xy xz yz ff ff pp
0.0000000000000000e+00 5.0000000000000000e+01 0.0000000000000000e+00
0.0000000000000000e+00 5.0000000000000000e+01 0.0000000000000000e+00
-5.0000000000000000e+00 5.0000000000000000e+00 0.0000000000000000e+00
ITEM: ATOMS id fy
3 0.0106827
ITEM: TIMESTEP
8700
ITEM: NUMBER OF ATOMS
1
ITEM: BOX BOUNDS xy xz yz ff ff pp
0.0000000000000000e+00 5.0000000000000000e+01 0.0000000000000000e+00
0.0000000000000000e+00 5.0000000000000000e+01 0.0000000000000000e+00
-5.0000000000000000e+00 5.0000000000000000e+00 0.0000000000000000e+00
ITEM: ATOMS id fy
3 -0.00474037
ITEM: TIMESTEP
8800
ITEM: NUMBER OF ATOMS
1
ITEM: BOX BOUNDS xy xz yz ff ff pp
0.0000000000000000e+00 5.0000000000000000e+01 0.0000000000000000e+00
0.0000000000000000e+00 5.0000000000000000e+01 0.0000000000000000e+00
-5.0000000000000000e+00 5.0000000000000000e+00 0.0000000000000000e+00
ITEM: ATOMS id fy
3 0.366644
ITEM: TIMESTEP
8900
ITEM: NUMBER OF ATOMS
1
ITEM: BOX BOUNDS xy xz yz ff ff pp
0.0000000000000000e+00 5.0000000000000000e+01 0.0000000000000000e+00
0.0000000000000000e+00 5.0000000000000000e+01 0.0000000000000000e+00
-5.0000000000000000e+00 5.0000000000000000e+00 0.0000000000000000e+00
ITEM: ATOMS id fy
3 0.0191773
ITEM: TIMESTEP
9000
ITEM: NUMBER OF ATOMS
1
ITEM: BOX BOUNDS xy xz yz ff ff pp
0.0000000000000000e+00 5.0000000000000000e+01 0.0000000000000000e+00
0.0000000000000000e+00 5.0000000000000000e+01 0.0000000000000000e+00
-5.0000000000000000e+00 5.0000000000000000e+00 0.0000000000000000e+00
ITEM: ATOMS id fy
3 -0.0620223
ITEM: TIMESTEP
9100
ITEM: NUMBER OF ATOMS
1
ITEM: BOX BOUNDS xy xz yz ff ff pp
0.0000000000000000e+00 5.0000000000000000e+01 0.0000000000000000e+00
0.0000000000000000e+00 5.0000000000000000e+01 0.0000000000000000e+00
-5.0000000000000000e+00 5.0000000000000000e+00 0.0000000000000000e+00
ITEM: ATOMS id fy
3 0.032777
ITEM: TIMESTEP
9200
ITEM: NUMBER OF ATOMS
1
ITEM: BOX BOUNDS xy xz yz ff ff pp
0.0000000000000000e+00 5.0000000000000000e+01 0.0000000000000000e+00
0.0000000000000000e+00 5.0000000000000000e+01 0.0000000000000000e+00
-5.0000000000000000e+00 5.0000000000000000e+00 0.0000000000000000e+00
ITEM: ATOMS id fy
3 -0.00709142
ITEM: TIMESTEP
9300
ITEM: NUMBER OF ATOMS
1
ITEM: BOX BOUNDS xy xz yz ff ff pp
0.0000000000000000e+00 5.0000000000000000e+01 0.0000000000000000e+00
0.0000000000000000e+00 5.0000000000000000e+01 0.0000000000000000e+00
-5.0000000000000000e+00 5.0000000000000000e+00 0.0000000000000000e+00
ITEM: ATOMS id fy
3 0.0174237
ITEM: TIMESTEP
9400
ITEM: NUMBER OF ATOMS
1
ITEM: BOX BOUNDS xy xz yz ff ff pp
0.0000000000000000e+00 5.0000000000000000e+01 0.0000000000000000e+00
0.0000000000000000e+00 5.0000000000000000e+01 0.0000000000000000e+00
-5.0000000000000000e+00 5.0000000000000000e+00 0.0000000000000000e+00
ITEM: ATOMS id fy
3 -0.00884419
ITEM: TIMESTEP
9500
ITEM: NUMBER OF ATOMS
1
ITEM: BOX BOUNDS xy xz yz ff ff pp
0.0000000000000000e+00 5.0000000000000000e+01 0.0000000000000000e+00
0.0000000000000000e+00 5.0000000000000000e+01 0.0000000000000000e+00
-5.0000000000000000e+00 5.0000000000000000e+00 0.0000000000000000e+00
ITEM: ATOMS id fy
3 0.0122034
ITEM: TIMESTEP
9600
ITEM: NUMBER OF ATOMS
1
ITEM: BOX BOUNDS xy xz yz ff ff pp
0.0000000000000000e+00 5.0000000000000000e+01 0.0000000000000000e+00
0.0000000000000000e+00 5.0000000000000000e+01 0.0000000000000000e+00
-5.0000000000000000e+00 5.0000000000000000e+00 0.0000000000000000e+00
ITEM: ATOMS id fy
3 0.0090576
ITEM: TIMESTEP
9700
ITEM: NUMBER OF ATOMS
1
ITEM: BOX BOUNDS xy xz yz ff ff pp
0.0000000000000000e+00 5.0000000000000000e+01 0.0000000000000000e+00
0.0000000000000000e+00 5.0000000000000000e+01 0.0000000000000000e+00
-5.0000000000000000e+00 5.0000000000000000e+00 0.0000000000000000e+00
ITEM: ATOMS id fy
3 0.00105702
ITEM: TIMESTEP
9800
ITEM: NUMBER OF ATOMS
1
ITEM: BOX BOUNDS xy xz yz ff ff pp
0.0000000000000000e+00 5.0000000000000000e+01 0.0000000000000000e+00
0.0000000000000000e+00 5.0000000000000000e+01 0.0000000000000000e+00
-5.0000000000000000e+00 5.0000000000000000e+00 0.0000000000000000e+00
ITEM: ATOMS id fy
3 0.00475
ITEM: TIMESTEP
9900
ITEM: NUMBER OF ATOMS
1
ITEM: BOX BOUNDS xy xz yz ff ff pp
0.0000000000000000e+00 5.0000000000000000e+01 0.0000000000000000e+00
0.0000000000000000e+00 5.0000000000000000e+01 0.0000000000000000e+00
-5.0000000000000000e+00 5.0000000000000000e+00 0.0000000000000000e+00
ITEM: ATOMS id fy
3 0.00250094
ITEM: TIMESTEP
10000
ITEM: NUMBER OF ATOMS
1
ITEM: BOX BOUNDS xy xz yz ff ff pp
0.0000000000000000e+00 5.0000000000000000e+01 0.0000000000000000e+00
0.0000000000000000e+00 5.0000000000000000e+01 0.0000000000000000e+00
-5.0000000000000000e+00 5.0000000000000000e+00 0.0000000000000000e+00
ITEM: ATOMS id fy
3 -2.41028e-05
ITEM: TIMESTEP
10100
ITEM: NUMBER OF ATOMS
1
ITEM: BOX BOUNDS xy xz yz ff ff pp
0.0000000000000000e+00 5.0000000000000000e+01 0.0000000000000000e+00
0.0000000000000000e+00 5.0000000000000000e+01 0.0000000000000000e+00
-5.0000000000000000e+00 5.0000000000000000e+00 0.0000000000000000e+00
ITEM: ATOMS id fy
3 -0.00297682
ITEM: TIMESTEP
10200
ITEM: NUMBER OF ATOMS
1
ITEM: BOX BOUNDS xy xz yz ff ff pp
0.0000000000000000e+00 5.0000000000000000e+01 0.0000000000000000e+00
0.0000000000000000e+00 5.0000000000000000e+01 0.0000000000000000e+00
-5.0000000000000000e+00 5.0000000000000000e+00 0.0000000000000000e+00
ITEM: ATOMS id fy
3 -0.00843183
ITEM: TIMESTEP
10300
ITEM: NUMBER OF ATOMS
1
ITEM: BOX BOUNDS xy xz yz ff ff pp
0.0000000000000000e+00 5.0000000000000000e+01 0.0000000000000000e+00
0.0000000000000000e+00 5.0000000000000000e+01 0.0000000000000000e+00
-5.0000000000000000e+00 5.0000000000000000e+00 0.0000000000000000e+00
ITEM: ATOMS id fy
3 -0.0127001
ITEM: TIMESTEP
10400
ITEM: NUMBER OF ATOMS
1
ITEM: BOX BOUNDS xy xz yz ff ff pp
0.0000000000000000e+00 5.0000000000000000e+01 0.0000000000000000e+00
0.0000000000000000e+00 5.0000000000000000e+01 0.0000000000000000e+00