ITEM: TIMESTEP
1000
ITEM: NUMBER OF ATOMS
1
ITEM: BOX BOUNDS xy xz yz ff ff pp
0.0000000000000000e+00 5.0000000000000000e+01 0.0000000000000000e+00
0.0000000000000000e+00 5.0000000000000000e+01 0.0000000000000000e+00
-5.0000000000000000e+00 5.0000000000000000e+00 0.0000000000000000e+00
ITEM: ATOMS id fy
3 5.50188e-06
ITEM: TIMESTEP
1100
ITEM: NUMBER OF ATOMS
1
ITEM: BOX BOUNDS xy xz yz ff ff pp
0.0000000000000000e+00 5.0000000000000000e+01 0.0000000000000000e+00
0.0000000000000000e+00 5.0000000000000000e+01 0.0000000000000000e+00
-5.0000000000000000e+00 5.0000000000000000e+00 0.0000000000000000e+00
ITEM: ATOMS id fy
3 1.83224
ITEM: TIMESTEP
1200
ITEM: NUMBER OF ATOMS
1
ITEM: BOX BOUNDS xy xz yz ff ff pp
0.0000000000000000e+00 5.0000000000000000e+01 0.0000000000000000e+00
0.0000000000000000e+00 5.0000000000000000e+01 0.0000000000000000e+00
-5.0000000000000000e+00 5.0000000000000000e+00 0.0000000000000000e+00
ITEM: ATOMS id fy
3 10.2648
ITEM: TIMESTEP
1300
ITEM: NUMBER OF ATOMS
1
ITEM: BOX BOUNDS xy xz yz ff ff pp
0.0000000000000000e+00 5.0000000000000000e+01 0.0000000000000000e+00
0.0000000000000000e+00 5.0000000000000000e+01 0.0000000000000000e+00
-5.0000000000000000e+00 5.0000000000000000e+00 0.0000000000000000e+00
ITEM: ATOMS id fy
3 0.48439
ITEM: TIMESTEP
1400
ITEM: NUMBER OF ATOMS
1
ITEM: BOX BOUNDS xy xz yz ff ff pp
0.0000000000000000e+00 5.0000000000000000e+01 0.0000000000000000e+00
0.0000000000000000e+00 5.0000000000000000e+01 0.0000000000000000e+00
-5.0000000000000000e+00 5.0000000000000000e+00 0.0000000000000000e+00
ITEM: ATOMS id fy
3 20.8135
ITEM: TIMESTEP
1500
ITEM: NUMBER OF ATOMS
1
ITEM: BOX BOUNDS xy xz yz ff ff pp
0.0000000000000000e+00 5.0000000000000000e+01 0.0000000000000000e+00
0.0000000000000000e+00 5.0000000000000000e+01 0.0000000000000000e+00
-5.0000000000000000e+00 5.0000000000000000e+00 0.0000000000000000e+00
ITEM: ATOMS id fy
3 4.57358
ITEM: TIMESTEP
1600
ITEM: NUMBER OF ATOMS
1
ITEM: BOX BOUNDS xy xz yz ff ff pp
0.0000000000000000e+00 5.0000000000000000e+01 0.0000000000000000e+00
0.0000000000000000e+00 5.0000000000000000e+01 0.0000000000000000e+00
-5.0000000000000000e+00 5.0000000000000000e+00 0.0000000000000000e+00
ITEM: ATOMS id fy
3 -10.9849
ITEM: TIMESTEP
1700
ITEM: NUMBER OF ATOMS
1
ITEM: BOX BOUNDS xy xz yz ff ff pp
0.0000000000000000e+00 5.0000000000000000e+01 0.0000000000000000e+00
0.0000000000000000e+00 5.0000000000000000e+01 0.0000000000000000e+00
-5.0000000000000000e+00 5.0000000000000000e+00 0.0000000000000000e+00
ITEM: ATOMS id fy
3 -4.1294
ITEM: TIMESTEP
1800
ITEM: NUMBER OF ATOMS
1
ITEM: BOX BOUNDS xy xz yz ff ff pp
0.0000000000000000e+00 5.0000000000000000e+01 0.0000000000000000e+00
0.0000000000000000e+00 5.0000000000000000e+01 0.0000000000000000e+00
-5.0000000000000000e+00 5.0000000000000000e+00 0.0000000000000000e+00
ITEM: ATOMS id fy
3 -4.44391
ITEM: TIMESTEP
1900
ITEM: NUMBER OF ATOMS
1
ITEM: BOX BOUNDS xy xz yz ff ff pp
0.0000000000000000e+00 5.0000000000000000e+01 0.0000000000000000e+00
0.0000000000000000e+00 5.0000000000000000e+01 0.0000000000000000e+00
-5.0000000000000000e+00 5.0000000000000000e+00 0.0000000000000000e+00
ITEM: ATOMS id fy
3 -11.3883
ITEM: TIMESTEP
2000
ITEM: NUMBER OF ATOMS
1
ITEM: BOX BOUNDS xy xz yz ff ff pp
0.0000000000000000e+00 5.0000000000000000e+01 0.0000000000000000e+00
0.0000000000000000e+00 5.0000000000000000e+01 0.0000000000000000e+00
-5.0000000000000000e+00 5.0000000000000000e+00 0.0000000000000000e+00
ITEM: ATOMS id fy
3 5.73569
ITEM: TIMESTEP
2100
ITEM: NUMBER OF ATOMS
1
ITEM: BOX BOUNDS xy xz yz ff ff pp
0.0000000000000000e+00 5.0000000000000000e+01 0.0000000000000000e+00
0.0000000000000000e+00 5.0000000000000000e+01 0.0000000000000000e+00
-5.0000000000000000e+00 5.0000000000000000e+00 0.0000000000000000e+00
ITEM: ATOMS id fy
3 1.80803
ITEM: TIMESTEP
2200
ITEM: NUMBER OF ATOMS
1
ITEM: BOX BOUNDS xy xz yz ff ff pp
0.0000000000000000e+00 5.0000000000000000e+01 0.0000000000000000e+00
0.0000000000000000e+00 5.0000000000000000e+01 0.0000000000000000e+00
-5.0000000000000000e+00 5.0000000000000000e+00 0.0000000000000000e+00
ITEM: ATOMS id fy
3 3.53514
ITEM: TIMESTEP
2300
ITEM: NUMBER OF ATOMS
1
ITEM: BOX BOUNDS xy xz yz ff ff pp
0.0000000000000000e+00 5.0000000000000000e+01 0.0000000000000000e+00
0.0000000000000000e+00 5.0000000000000000e+01 0.0000000000000000e+00
-5.0000000000000000e+00 5.0000000000000000e+00 0.0000000000000000e+00
ITEM: ATOMS id fy
3 -0.38756
ITEM: TIMESTEP
2400
ITEM: NUMBER OF ATOMS
1
ITEM: BOX BOUNDS xy xz yz ff ff pp
0.0000000000000000e+00 5.0000000000000000e+01 0.0000000000000000e+00
0.0000000000000000e+00 5.0000000000000000e+01 0.0000000000000000e+00
-5.0000000000000000e+00 5.0000000000000000e+00 0.0000000000000000e+00
ITEM: ATOMS id fy
3 -6.52854
ITEM: TIMESTEP
2500
ITEM: NUMBER OF ATOMS
1
ITEM: BOX BOUNDS xy xz yz ff ff pp
0.0000000000000000e+00 5.0000000000000000e+01 0.0000000000000000e+00
0.0000000000000000e+00 5.0000000000000000e+01 0.0000000000000000e+00
-5.0000000000000000e+00 5.0000000000000000e+00 0.0000000000000000e+00
ITEM: ATOMS id fy
3 3.5713
ITEM: TIMESTEP
2600
ITEM: NUMBER OF ATOMS
1
ITEM: BOX BOUNDS xy xz yz ff ff pp
0.0000000000000000e+00 5.0000000000000000e+01 0.0000000000000000e+00
0.0000000000000000e+00 5.0000000000000000e+01 0.0000000000000000e+00
-5.0000000000000000e+00 5.0000000000000000e+00 0.0000000000000000e+00
ITEM: ATOMS id fy
3 -1.99619
ITEM: TIMESTEP
2700
ITEM: NUMBER OF ATOMS
1
ITEM: BOX BOUNDS xy xz yz ff ff pp
0.0000000000000000e+00 5.0000000000000000e+01 0.0000000000000000e+00
0.0000000000000000e+00 5.0000000000000000e+01 0.0000000000000000e+00
-5.0000000000000000e+00 5.0000000000000000e+00 0.0000000000000000e+00
ITEM: ATOMS id fy
3 1.00585
ITEM: TIMESTEP
2800
ITEM: NUMBER OF ATOMS
1
ITEM: BOX BOUNDS xy xz yz ff ff pp
0.0000000000000000e+00 5.0000000000000000e+01 0.0000000000000000e+00
0.0000000000000000e+00 5.0000000000000000e+01 0.0000000000000000e+00
-5.0000000000000000e+00 5.0000000000000000e+00 0.0000000000000000e+00
ITEM: ATOMS id fy
3 5.18038
ITEM: TIMESTEP
2900
ITEM: NUMBER OF ATOMS
1
ITEM: BOX BOUNDS xy xz yz ff ff pp
0.0000000000000000e+00 5.0000000000000000e+01 0.0000000000000000e+00
0.0000000000000000e+00 5.0000000000000000e+01 0.0000000000000000e+00
-5.0000000000000000e+00 5.0000000000000000e+00 0.0000000000000000e+00
ITEM: ATOMS id fy
3 0.924322
ITEM: TIMESTEP
3000
ITEM: NUMBER OF ATOMS
1
ITEM: BOX BOUNDS xy xz yz ff ff pp
0.0000000000000000e+00 5.0000000000000000e+01 0.0000000000000000e+00
0.0000000000000000e+00 5.0000000000000000e+01 0.0000000000000000e+00
-5.0000000000000000e+00 5.0000000000000000e+00 0.0000000000000000e+00
ITEM: ATOMS id fy
3 2.2916
ITEM: TIMESTEP
3100
ITEM: NUMBER OF ATOMS
1
ITEM: BOX BOUNDS xy xz yz ff ff pp
0.0000000000000000e+00 5.0000000000000000e+01 0.0000000000000000e+00
0.0000000000000000e+00 5.0000000000000000e+01 0.0000000000000000e+00
-5.0000000000000000e+00 5.0000000000000000e+00 0.0000000000000000e+00
ITEM: ATOMS id fy
3 -0.191853
ITEM: TIMESTEP
3200
ITEM: NUMBER OF ATOMS
1
ITEM: BOX BOUNDS xy xz yz ff ff pp
0.0000000000000000e+00 5.0000000000000000e+01 0.0000000000000000e+00
0.0000000000000000e+00 5.0000000000000000e+01 0.0000000000000000e+00
-5.0000000000000000e+00 5.0000000000000000e+00 0.0000000000000000e+00
ITEM: ATOMS id fy
3 -0.620736
ITEM: TIMESTEP
3300
ITEM: NUMBER OF ATOMS
1
ITEM: BOX BOUNDS xy xz yz ff ff pp
0.0000000000000000e+00 5.0000000000000000e+01 0.0000000000000000e+00
0.0000000000000000e+00 5.0000000000000000e+01 0.0000000000000000e+00
-5.0000000000000000e+00 5.0000000000000000e+00 0.0000000000000000e+00
ITEM: ATOMS id fy
3 -1.44032
ITEM: TIMESTEP
3400
ITEM: NUMBER OF ATOMS
1
ITEM: BOX BOUNDS xy xz yz ff ff pp
0.0000000000000000e+00 5.0000000000000000e+01 0.0000000000000000e+00
0.0000000000000000e+00 5.0000000000000000e+01 0.0000000000000000e+00
-5.0000000000000000e+00 5.0000000000000000e+00 0.0000000000000000e+00
ITEM: ATOMS id fy
3 -0.592287
ITEM: TIMESTEP
3500
ITEM: NUMBER OF ATOMS
1
ITEM: BOX BOUNDS xy xz yz ff ff pp
0.0000000000000000e+00 5.0000000000000000e+01 0.0000000000000000e+00
0.0000000000000000e+00 5.0000000000000000e+01 0.0000000000000000e+00
-5.0000000000000000e+00 5.0000000000000000e+00 0.0000000000000000e+00
ITEM: ATOMS id fy
3 0.286544
ITEM: TIMESTEP
3600
ITEM: NUMBER OF ATOMS
1
ITEM: BOX BOUNDS xy xz yz ff ff pp
0.0000000000000000e+00 5.0000000000000000e+01 0.0000000000000000e+00
0.0000000000000000e+00 5.0000000000000000e+01 0.0000000000000000e+00
-5.0000000000000000e+00 5.0000000000000000e+00 0.0000000000000000e+00
ITEM: ATOMS id fy
3 0.945702
ITEM: TIMESTEP
3700
ITEM: NUMBER OF ATOMS
1
ITEM: BOX BOUNDS xy xz yz ff ff pp
0.0000000000000000e+00 5.0000000000000000e+01 0.0000000000000000e+00
0.0000000000000000e+00 5.0000000000000000e+01 0.0000000000000000e+00
-5.0000000000000000e+00 5.0000000000000000e+00 0.0000000000000000e+00
ITEM: ATOMS id fy
3 0.927044
ITEM: TIMESTEP
3800
ITEM: NUMBER OF ATOMS
1
ITEM: BOX BOUNDS xy xz yz ff ff pp
0.0000000000000000e+00 5.0000000000000000e+01 0.0000000000000000e+00
0.0000000000000000e+00 5.0000000000000000e+01 0.0000000000000000e+00
-5.0000000000000000e+00 5.0000000000000000e+00 0.0000000000000000e+00
ITEM: ATOMS id fy
3 0.45252
ITEM: TIMESTEP
3900
ITEM: NUMBER OF ATOMS
1
ITEM: BOX BOUNDS xy xz yz ff ff pp
0.0000000000000000e+00 5.0000000000000000e+01 0.0000000000000000e+00
0.0000000000000000e+00 5.0000000000000000e+01 0.0000000000000000e+00
-5.0000000000000000e+00 5.0000000000000000e+00 0.0000000000000000e+00
ITEM: ATOMS id fy
3 0.0980037
ITEM: TIMESTEP
4000
ITEM: NUMBER OF ATOMS
1
ITEM: BOX BOUNDS xy xz yz ff ff pp
0.0000000000000000e+00 5.0000000000000000e+01 0.0000000000000000e+00
0.0000000000000000e+00 5.0000000000000000e+01 0.0000000000000000e+00
-5.0000000000000000e+00 5.0000000000000000e+00 0.0000000000000000e+00
ITEM: ATOMS id fy
3 -1.32539
ITEM: TIMESTEP
4100
ITEM: NUMBER OF ATOMS
1
ITEM: BOX BOUNDS xy xz yz ff ff pp
0.0000000000000000e+00 5.0000000000000000e+01 0.0000000000000000e+00
0.0000000000000000e+00 5.0000000000000000e+01 0.0000000000000000e+00
-5.0000000000000000e+00 5.0000000000000000e+00 0.0000000000000000e+00
ITEM: ATOMS id fy
3 -0.505131
ITEM: TIMESTEP
4200
ITEM: NUMBER OF ATOMS
1
ITEM: BOX BOUNDS xy xz yz ff ff pp
0.0000000000000000e+00 5.0000000000000000e+01 0.0000000000000000e+00
0.0000000000000000e+00 5.0000000000000000e+01 0.0000000000000000e+00
-5.0000000000000000e+00 5.0000000000000000e+00 0.0000000000000000e+00
ITEM: ATOMS id fy
3 -0.146479
ITEM: TIMESTEP
4300
ITEM: NUMBER OF ATOMS
1
ITEM: BOX BOUNDS xy xz yz ff ff pp
0.0000000000000000e+00 5.0000000000000000e+01 0.0000000000000000e+00
0.0000000000000000e+00 5.0000000000000000e+01 0.0000000000000000e+00
-5.0000000000000000e+00 5.0000000000000000e+00 0.0000000000000000e+00
ITEM: ATOMS id fy
3 -0.356858
ITEM: TIMESTEP
4400
ITEM: NUMBER OF ATOMS
1
ITEM: BOX BOUNDS xy xz yz ff ff pp
0.0000000000000000e+00 5.0000000000000000e+01 0.0000000000000000e+00
0.0000000000000000e+00 5.0000000000000000e+01 0.0000000000000000e+00
-5.0000000000000000e+00 5.0000000000000000e+00 0.0000000000000000e+00
ITEM: ATOMS id fy
3 0.349936
ITEM: TIMESTEP
4500
ITEM: NUMBER OF ATOMS
1
ITEM: BOX BOUNDS xy xz yz ff ff pp
0.0000000000000000e+00 5.0000000000000000e+01 0.0000000000000000e+00
0.0000000000000000e+00 5.0000000000000000e+01 0.0000000000000000e+00
-5.0000000000000000e+00 5.0000000000000000e+00 0.0000000000000000e+00
ITEM: ATOMS id fy
3 0.168326
ITEM: TIMESTEP
4600
ITEM: NUMBER OF ATOMS
1
ITEM: BOX BOUNDS xy xz yz ff ff pp
0.0000000000000000e+00 5.0000000000000000e+01 0.0000000000000000e+00
0.0000000000000000e+00 5.0000000000000000e+01 0.0000000000000000e+00
-5.0000000000000000e+00 5.0000000000000000e+00 0.0000000000000000e+00
ITEM: ATOMS id fy
3 0.596185
ITEM: TIMESTEP
4700
ITEM: NUMBER OF ATOMS
1
ITEM: BOX BOUNDS xy xz yz ff ff pp
0.0000000000000000e+00 5.0000000000000000e+01 0.0000000000000000e+00
0.0000000000000000e+00 5.0000000000000000e+01 0.0000000000000000e+00
-5.0000000000000000e+00 5.0000000000000000e+00 0.0000000000000000e+00
ITEM: ATOMS id fy
3 0.0959535
ITEM: TIMESTEP
4800
ITEM: NUMBER OF ATOMS
1
ITEM: BOX BOUNDS xy xz yz ff ff pp
0.0000000000000000e+00 5.0000000000000000e+01 0.0000000000000000e+00
0.0000000000000000e+00 5.0000000000000000e+01 0.0000000000000000e+00
-5.0000000000000000e+00 5.0000000000000000e+00 0.0000000000000000e+00
ITEM: ATOMS id fy
3 -0.0251122
ITEM: TIMESTEP
4900
ITEM: NUMBER OF ATOMS
1
ITEM: BOX BOUNDS xy xz yz ff ff pp
0.0000000000000000e+00 5.0000000000000000e+01 0.0000000000000000e+00
0.0000000000000000e+00 5.0000000000000000e+01 0.0000000000000000e+00
-5.0000000000000000e+00 5.0000000000000000e+00 0.0000000000000000e+00
ITEM: ATOMS id fy
3 -0.0524873
ITEM: TIMESTEP
5000
ITEM: NUMBER OF ATOMS
1
ITEM: BOX BOUNDS xy xz yz ff ff pp
0.0000000000000000e+00 5.0000000000000000e+01 0.0000000000000000e+00
0.0000000000000000e+00 5.0000000000000000e+01 0.0000000000000000e+00
-5.0000000000000000e+00 5.0000000000000000e+00 0.0000000000000000e+00
ITEM: ATOMS id fy
3 0.00593301
ITEM: TIMESTEP
5100
ITEM: NUMBER OF ATOMS
1
ITEM: BOX BOUNDS xy xz yz ff ff pp
0.0000000000000000e+00 5.0000000000000000e+01 0.0000000000000000e+00
0.0000000000000000e+00 5.0000000000000000e+01 0.0000000000000000e+00
-5.0000000000000000e+00 5.0000000000000000e+00 0.0000000000000000e+00
ITEM: ATOMS id fy
3 0.207044
ITEM: TIMESTEP
5200
ITEM: NUMBER OF ATOMS
1
ITEM: BOX BOUNDS xy xz yz ff ff pp
0.0000000000000000e+00 5.0000000000000000e+01 0.0000000000000000e+00
0.0000000000000000e+00 5.0000000000000000e+01 0.0000000000000000e+00
-5.0000000000000000e+00 5.0000000000000000e+00 0.0000000000000000e+00
ITEM: ATOMS id fy
3 0.0220614
ITEM: TIMESTEP
5300
ITEM: NUMBER OF ATOMS
1
ITEM: BOX BOUNDS xy xz yz ff ff pp
0.0000000000000000e+00 5.0000000000000000e+01 0.0000000000000000e+00
0.0000000000000000e+00 5.0000000000000000e+01 0.0000000000000000e+00
-5.0000000000000000e+00 5.0000000000000000e+00 0.0000000000000000e+00
ITEM: ATOMS id fy
3 0.242184
ITEM: TIMESTEP
5400
ITEM: NUMBER OF ATOMS
1
ITEM: BOX BOUNDS xy xz yz ff ff pp
0.0000000000000000e+00 5.0000000000000000e+01 0.0000000000000000e+00
0.0000000000000000e+00 5.0000000000000000e+01 0.0000000000000000e+00
-5.0000000000000000e+00 5.0000000000000000e+00 0.0000000000000000e+00
ITEM: ATOMS id fy
3 -0.0856753
ITEM: TIMESTEP
5500
ITEM: NUMBER OF ATOMS
1
ITEM: BOX BOUNDS xy xz yz ff ff pp
0.0000000000000000e+00 5.0000000000000000e+01 0.0000000000000000e+00
0.0000000000000000e+00 5.0000000000000000e+01 0.0000000000000000e+00
-5.0000000000000000e+00 5.0000000000000000e+00 0.0000000000000000e+00
ITEM: ATOMS id fy
3 -0.0528832
ITEM: TIMESTEP
5600
ITEM: NUMBER OF ATOMS
1
ITEM: BOX BOUNDS xy xz yz ff ff pp
0.0000000000000000e+00 5.0000000000000000e+01 0.0000000000000000e+00
0.0000000000000000e+00 5.0000000000000000e+01 0.0000000000000000e+00
-5.0000000000000000e+00 5.0000000000000000e+00 0.0000000000000000e+00
ITEM: ATOMS id fy
3 -0.201365
ITEM: TIMESTEP
5700
ITEM: NUMBER OF ATOMS
1
ITEM: BOX BOUNDS xy xz yz ff ff pp
0.0000000000000000e+00 5.0000000000000000e+01 0.0000000000000000e+00
0.0000000000000000e+00 5.0000000000000000e+01 0.0000000000000000e+00
-5.0000000000000000e+00 5.0000000000000000e+00 0.0000000000000000e+00
ITEM: ATOMS id fy
3 -0.0687838
ITEM: TIMESTEP
5800
ITEM: NUMBER OF ATOMS
1
ITEM: BOX BOUNDS xy xz yz ff ff pp
0.0000000000000000e+00 5.0000000000000000e+01 0.0000000000000000e+00
0.0000000000000000e+00 5.0000000000000000e+01 0.0000000000000000e+00
-5.0000000000000000e+00 5.0000000000000000e+00 0.0000000000000000e+00
ITEM: ATOMS id fy
3 0.0220593
ITEM: TIMESTEP
5900
ITEM: NUMBER OF ATOMS
1
ITEM: BOX BOUNDS xy xz yz ff ff pp
0.0000000000000000e+00 5.0000000000000000e+01 0.0000000000000000e+00
0.0000000000000000e+00 5.0000000000000000e+01 0.0000000000000000e+00
-5.0000000000000000e+00 5.0000000000000000e+00 0.0000000000000000e+00
ITEM: ATOMS id fy
3 0.0187408
ITEM: TIMESTEP
6000
ITEM: NUMBER OF ATOMS
1
ITEM: BOX BOUNDS xy xz yz ff ff pp
0.0000000000000000e+00 5.0000000000000000e+01 0.0000000000000000e+00
0.0000000000000000e+00 5.0000000000000000e+01 0.0000000000000000e+00
-5.0000000000000000e+00 5.0000000000000000e+00 0.0000000000000000e+00
ITEM: ATOMS id fy
3 0.043251
ITEM: TIMESTEP
6100
ITEM: NUMBER OF ATOMS
1
ITEM: BOX BOUNDS xy xz yz ff ff pp
0.0000000000000000e+00 5.0000000000000000e+01 0.0000000000000000e+00
0.0000000000000000e+00 5.0000000000000000e+01 0.0000000000000000e+00
-5.0000000000000000e+00 5.0000000000000000e+00 0.0000000000000000e+00
ITEM: ATOMS id fy
3 0.0164592
ITEM: TIMESTEP
6200
ITEM: NUMBER OF ATOMS
1
ITEM: BOX BOUNDS xy xz yz ff ff pp
0.0000000000000000e+00 5.0000000000000000e+01 0.0000000000000000e+00
0.0000000000000000e+00 5.0000000000000000e+01 0.0000000000000000e+00
-5.0000000000000000e+00 5.0000000000000000e+00 0.0000000000000000e+00
ITEM: ATOMS id fy
3 -0.0360552
ITEM: TIMESTEP
6300
ITEM: NUMBER OF ATOMS
1
ITEM: BOX BOUNDS xy xz yz ff ff pp
0.0000000000000000e+00 5.0000000000000000e+01 0.0000000000000000e+00
0.0000000000000000e+00 5.0000000000000000e+01 0.0000000000000000e+00
-5.0000000000000000e+00 5.0000000000000000e+00 0.0000000000000000e+00
ITEM: ATOMS id fy
3 -0.0577711
ITEM: TIMESTEP
6400
ITEM: NUMBER OF ATOMS
1
ITEM: BOX BOUNDS xy xz yz ff ff pp
0.0000000000000000e+00 5.0000000000000000e+01 0.0000000000000000e+00
0.0000000000000000e+00 5.0000000000000000e+01 0.0000000000000000e+00
-5.0000000000000000e+00 5.0000000000000000e+00 0.0000000000000000e+00
ITEM: ATOMS id fy
3 -0.0791652
ITEM: TIMESTEP
6500
ITEM: NUMBER OF ATOMS
1
ITEM: BOX BOUNDS xy xz yz ff ff pp
0.0000000000000000e+00 5.0000000000000000e+01 0.0000000000000000e+00
0.0000000000000000e+00 5.0000000000000000e+01 0.0000000000000000e+00
-5.0000000000000000e+00 5.0000000000000000e+00 0.0000000000000000e+00
ITEM: ATOMS id fy
3 -0.066999
ITEM: TIMESTEP
6600
ITEM: NUMBER OF ATOMS
1
ITEM: BOX BOUNDS xy xz yz ff ff pp
0.0000000000000000e+00 5.0000000000000000e+01 0.0000000000000000e+00
0.0000000000000000e+00 5.0000000000000000e+01 0.0000000000000000e+00
-5.0000000000000000e+00 5.0000000000000000e+00 0.0000000000000000e+00
ITEM: ATOMS id fy
3 -0.0387262
ITEM: TIMESTEP
6700
ITEM: NUMBER OF ATOMS
1
ITEM: BOX BOUNDS xy xz yz ff ff pp
0.0000000000000000e+00 5.0000000000000000e+01 0.0000000000000000e+00
0.0000000000000000e+00 5.0000000000000000e+01 0.0000000000000000e+00
-5.0000000000000000e+00 5.0000000000000000e+00 0.0000000000000000e+00
ITEM: ATOMS id fy
3 -0.00929883
ITEM: TIMESTEP
6800
ITEM: NUMBER OF ATOMS
1
ITEM: BOX BOUNDS xy xz yz ff ff pp
0.0000000000000000e+00 5.0000000000000000e+01 0.0000000000000000e+00
0.0000000000000000e+00 5.0000000000000000e+01 0.0000000000000000e+00
-5.0000000000000000e+00 5.0000000000000000e+00 0.0000000000000000e+00
ITEM: ATOMS id fy
3 0.0131177
ITEM: TIMESTEP
6900
ITEM: NUMBER OF ATOMS
1
ITEM: BOX BOUNDS xy xz yz ff ff pp
0.0000000000000000e+00 5.0000000000000000e+01 0.0000000000000000e+00
0.0000000000000000e+00 5.0000000000000000e+01 0.0000000000000000e+00
-5.0000000000000000e+00 5.0000000000000000e+00 0.0000000000000000e+00
ITEM: ATOMS id fy
3 0.0204972
ITEM: TIMESTEP
7000
ITEM: NUMBER OF ATOMS
1
ITEM: BOX BOUNDS xy xz yz ff ff pp
0.0000000000000000e+00 5.0000000000000000e+01 0.0000000000000000e+00
0.0000000000000000e+00 5.0000000000000000e+01 0.0000000000000000e+00
-5.0000000000000000e+00 5.0000000000000000e+00 0.0000000000000000e+00
ITEM: ATOMS id fy
3 -0.0832642
ITEM: TIMESTEP
7100
ITEM: NUMBER OF ATOMS
1
ITEM: BOX BOUNDS xy xz yz ff ff pp
0.0000000000000000e+00 5.0000000000000000e+01 0.0000000000000000e+00
0.0000000000000000e+00 5.0000000000000000e+01 0.0000000000000000e+00
-5.0000000000000000e+00 5.0000000000000000e+00 0.0000000000000000e+00
ITEM: ATOMS id fy
3 0.223204
ITEM: TIMESTEP
7200
ITEM: NUMBER OF ATOMS
1
ITEM: BOX BOUNDS xy xz yz ff ff pp
0.0000000000000000e+00 5.0000000000000000e+01 0.0000000000000000e+00
0.0000000000000000e+00 5.0000000000000000e+01 0.0000000000000000e+00
-5.0000000000000000e+00 5.0000000000000000e+00 0.0000000000000000e+00
ITEM: ATOMS id fy
3 -0.0967037
ITEM: TIMESTEP
7300
ITEM: NUMBER OF ATOMS
1
ITEM: BOX BOUNDS xy xz yz ff ff pp
0.0000000000000000e+00 5.0000000000000000e+01 0.0000000000000000e+00
0.0000000000000000e+00 5.0000000000000000e+01 0.0000000000000000e+00
-5.0000000000000000e+00 5.0000000000000000e+00 0.0000000000000000e+00
ITEM: ATOMS id fy
3 0.0813762
ITEM: TIMESTEP
7400
ITEM: NUMBER OF ATOMS
1
ITEM: BOX BOUNDS xy xz yz ff ff pp
0.0000000000000000e+00 5.0000000000000000e+01 0.0000000000000000e+00
0.0000000000000000e+00 5.0000000000000000e+01 0.0000000000000000e+00
-5.0000000000000000e+00 5.0000000000000000e+00 0.0000000000000000e+00
ITEM: ATOMS id fy
3 0.0679191
ITEM: TIMESTEP
7500
ITEM: NUMBER OF ATOMS
1
ITEM: BOX BOUNDS xy xz yz ff ff pp
0.0000000000000000e+00 5.0000000000000000e+01 0.0000000000000000e+00
0.0000000000000000e+00 5.0000000000000000e+01 0.0000000000000000e+00
-5.0000000000000000e+00 5.0000000000000000e+00 0.0000000000000000e+00
ITEM: ATOMS id fy
3 0.0357657
ITEM: TIMESTEP
7600
ITEM: NUMBER OF ATOMS
1
ITEM: BOX BOUNDS xy xz yz ff ff pp
0.0000000000000000e+00 5.0000000000000000e+01 0.0000000000000000e+00
0.0000000000000000e+00 5.0000000000000000e+01 0.0000000000000000e+00
-5.0000000000000000e+00 5.0000000000000000e+00 0.0000000000000000e+00
ITEM: ATOMS id fy
3 0.00254752
ITEM: TIMESTEP
7700
ITEM: NUMBER OF ATOMS
1
ITEM: BOX BOUNDS xy xz yz ff ff pp
0.0000000000000000e+00 5.0000000000000000e+01 0.0000000000000000e+00
0.0000000000000000e+00 5.0000000000000000e+01 0.0000000000000000e+00
-5.0000000000000000e+00 5.0000000000000000e+00 0.0000000000000000e+00
ITEM: ATOMS id fy
3 0.0172643
ITEM: TIMESTEP
7800
ITEM: NUMBER OF ATOMS
1
ITEM: BOX BOUNDS xy xz yz ff ff pp
0.0000000000000000e+00 5.0000000000000000e+01 0.0000000000000000e+00
0.0000000000000000e+00 5.0000000000000000e+01 0.0000000000000000e+00
-5.0000000000000000e+00 5.0000000000000000e+00 0.0000000000000000e+00
ITEM: ATOMS id fy
3 -0.00656705
ITEM: TIMESTEP
7900
ITEM: NUMBER OF ATOMS
1
ITEM: BOX BOUNDS xy xz yz ff ff pp
0.0000000000000000e+00 5.0000000000000000e+01 0.0000000000000000e+00
0.0000000000000000e+00 5.0000000000000000e+01 0.0000000000000000e+00
-5.0000000000000000e+00 5.0000000000000000e+00 0.0000000000000000e+00
ITEM: ATOMS id fy
3 -0.0158685
ITEM: TIMESTEP
8000
ITEM: NUMBER OF ATOMS
1
ITEM: BOX BOUNDS xy xz yz ff ff pp
0.0000000000000000e+00 5.0000000000000000e+01 0.0000000000000000e+00
0.0000000000000000e+00 5.0000000000000000e+01 0.0000000000000000e+00
-5.0000000000000000e+00 5.0000000000000000e+00 0.0000000000000000e+00
ITEM: ATOMS id fy
3 -0.0224365
ITEM: TIMESTEP
8100
ITEM: NUMBER OF ATOMS
1
ITEM: BOX BOUNDS xy xz yz ff ff pp
0.0000000000000000e+00 5.0000000000000000e+01 0.0000000000000000e+00
0.0000000000000000e+00 5.0000000000000000e+01 0.0000000000000000e+00
-5.0000000000000000e+00 5.0000000000000000e+00 0.0000000000000000e+00
ITEM: ATOMS id fy
3 -0.0311336
ITEM: TIMESTEP
8200
ITEM: NUMBER OF ATOMS
1
ITEM: BOX BOUNDS xy xz yz ff ff pp
0.0000000000000000e+00 5.0000000000000000e+01 0.0000000000000000e+00
0.0000000000000000e+00 5.0000000000000000e+01 0.0000000000000000e+00
-5.0000000000000000e+00 5.0000000000000000e+00 0.0000000000000000e+00
ITEM: ATOMS id fy
3 -0.0254741
ITEM: TIMESTEP
8300
ITEM: NUMBER OF ATOMS
1
ITEM: BOX BOUNDS xy xz yz ff ff pp
0.0000000000000000e+00 5.0000000000000000e+01 0.0000000000000000e+00
0.0000000000000000e+00 5.0000000000000000e+01 0.0000000000000000e+00
-5.0000000000000000e+00 5.0000000000000000e+00 0.0000000000000000e+00
ITEM: ATOMS id fy
3 -0.0206222
ITEM: TIMESTEP
8400
ITEM: NUMBER OF ATOMS
1
ITEM: BOX BOUNDS xy xz yz ff ff pp
0.0000000000000000e+00 5.0000000000000000e+01 0.0000000000000000e+00
0.0000000000000000e+00 5.0000000000000000e+01 0.0000000000000000e+00
-5.0000000000000000e+00 5.0000000000000000e+00 0.0000000000000000e+00
ITEM: ATOMS id fy
3 -0.0154556
ITEM: TIMESTEP
8500
ITEM: NUMBER OF ATOMS
1
ITEM: BOX BOUNDS xy xz yz ff ff pp
0.0000000000000000e+00 5.0000000000000000e+01 0.0000000000000000e+00
0.0000000000000000e+00 5.0000000000000000e+01 0.0000000000000000e+00
-5.0000000000000000e+00 5.0000000000000000e+00 0.0000000000000000e+00
ITEM: ATOMS id fy
3 -0.0157774
ITEM: TIMESTEP
8600
ITEM: NUMBER OF ATOMS
1
ITEM: BOX BOUNDS xy xz yz ff ff pp
0.0000000000000000e+00 5.0000000000000000e+01 0.0000000000000000e+00
0.0000000000000000e+00 5.0000000000000000e+01 0.0000000000000000e+00
-5.0000000000000000e+00 5.0000000000000000e+00 0.0000000000000000e+00
ITEM: ATOMS id fy
3 -0.0166186
ITEM: TIMESTEP
8700
ITEM: NUMBER OF ATOMS
1
ITEM: BOX BOUNDS xy xz yz ff ff pp
0.0000000000000000e+00 5.0000000000000000e+01 0.0000000000000000e+00
0.0000000000000000e+00 5.0000000000000000e+01 0.0000000000000000e+00
-5.0000000000000000e+00 5.0000000000000000e+00 0.0000000000000000e+00
ITEM: ATOMS id fy
3 -0.0162356
ITEM: TIMESTEP
8800
ITEM: NUMBER OF ATOMS
1
ITEM: BOX BOUNDS xy xz yz ff ff pp
0.0000000000000000e+00 5.0000000000000000e+01 0.0000000000000000e+00
0.0000000000000000e+00 5.0000000000000000e+01 0.0000000000000000e+00
-5.0000000000000000e+00 5.0000000000000000e+00 0.0000000000000000e+00
ITEM: ATOMS id fy
3 -0.0103962
ITEM: TIMESTEP
8900
ITEM: NUMBER OF ATOMS
1
ITEM: BOX BOUNDS xy xz yz ff ff pp
0.0000000000000000e+00 5.0000000000000000e+01 0.0000000000000000e+00
0.0000000000000000e+00 5.0000000000000000e+01 0.0000000000000000e+00
-5.0000000000000000e+00 5.0000000000000000e+00 0.0000000000000000e+00
ITEM: ATOMS id fy
3 -0.00125442
ITEM: TIMESTEP
9000
ITEM: NUMBER OF ATOMS
1
ITEM: BOX BOUNDS xy xz yz ff ff pp
0.0000000000000000e+00 5.0000000000000000e+01 0.0000000000000000e+00
0.0000000000000000e+00 5.0000000000000000e+01 0.0000000000000000e+00
-5.0000000000000000e+00 5.0000000000000000e+00 0.0000000000000000e+00
ITEM: ATOMS id fy
3 0.198745
ITEM: TIMESTEP
9100
ITEM: NUMBER OF ATOMS
1
ITEM: BOX BOUNDS xy xz yz ff ff pp
0.0000000000000000e+00 5.0000000000000000e+01 0.0000000000000000e+00
0.0000000000000000e+00 5.0000000000000000e+01 0.0000000000000000e+00
-5.0000000000000000e+00 5.0000000000000000e+00 0.0000000000000000e+00
ITEM: ATOMS id fy
3 -0.175383
ITEM: TIMESTEP
9200
ITEM: NUMBER OF ATOMS
1
ITEM: BOX BOUNDS xy xz yz ff ff pp
0.0000000000000000e+00 5.0000000000000000e+01 0.0000000000000000e+00
0.0000000000000000e+00 5.0000000000000000e+01 0.0000000000000000e+00
-5.0000000000000000e+00 5.0000000000000000e+00 0.0000000000000000e+00
ITEM: ATOMS id fy
3 0.0804846
ITEM: TIMESTEP
9300
ITEM: NUMBER OF ATOMS
1
ITEM: BOX BOUNDS xy xz yz ff ff pp
0.0000000000000000e+00 5.0000000000000000e+01 0.0000000000000000e+00
0.0000000000000000e+00 5.0000000000000000e+01 0.0000000000000000e+00
-5.0000000000000000e+00 5.0000000000000000e+00 0.0000000000000000e+00
ITEM: ATOMS id fy
3 0.0113098
ITEM: TIMESTEP
9400
ITEM: NUMBER OF ATOMS
1
ITEM: BOX BOUNDS xy xz yz ff ff pp
0.0000000000000000e+00 5.0000000000000000e+01 0.0000000000000000e+00
0.0000000000000000e+00 5.0000000000000000e+01 0.0000000000000000e+00
-5.0000000000000000e+00 5.0000000000000000e+00 0.0000000000000000e+00
ITEM: ATOMS id fy
3 0.0163659
ITEM: TIMESTEP
9500
ITEM: NUMBER OF ATOMS
1
ITEM: BOX BOUNDS xy xz yz ff ff pp
0.0000000000000000e+00 5.0000000000000000e+01 0.0000000000000000e+00
0.0000000000000000e+00 5.0000000000000000e+01 0.0000000000000000e+00
-5.0000000000000000e+00 5.0000000000000000e+00 0.0000000000000000e+00
ITEM: ATOMS id fy
3 0.00446274
ITEM: TIMESTEP
9600
ITEM: NUMBER OF ATOMS
1
ITEM: BOX BOUNDS xy xz yz ff ff pp
0.0000000000000000e+00 5.0000000000000000e+01 0.0000000000000000e+00
0.0000000000000000e+00 5.0000000000000000e+01 0.0000000000000000e+00
-5.0000000000000000e+00 5.0000000000000000e+00 0.0000000000000000e+00
ITEM: ATOMS id fy
3 0.02068
ITEM: TIMESTEP
9700
ITEM: NUMBER OF ATOMS
1
ITEM: BOX BOUNDS xy xz yz ff ff pp
0.0000000000000000e+00 5.0000000000000000e+01 0.0000000000000000e+00
0.0000000000000000e+00 5.0000000000000000e+01 0.0000000000000000e+00
-5.0000000000000000e+00 5.0000000000000000e+00 0.0000000000000000e+00
ITEM: ATOMS id fy
3 0.00930287
ITEM: TIMESTEP
9800
ITEM: NUMBER OF ATOMS
1
ITEM: BOX BOUNDS xy xz yz ff ff pp
0.0000000000000000e+00 5.0000000000000000e+01 0.0000000000000000e+00
0.0000000000000000e+00 5.0000000000000000e+01 0.0000000000000000e+00
-5.0000000000000000e+00 5.0000000000000000e+00 0.0000000000000000e+00
ITEM: ATOMS id fy
3 0.00734988
ITEM: TIMESTEP
9900
ITEM: NUMBER OF ATOMS
1
ITEM: BOX BOUNDS xy xz yz ff ff pp
0.0000000000000000e+00 5.0000000000000000e+01 0.0000000000000000e+00
0.0000000000000000e+00 5.0000000000000000e+01 0.0000000000000000e+00
-5.0000000000000000e+00 5.0000000000000000e+00 0.0000000000000000e+00
ITEM: ATOMS id fy
3 0.00207078
ITEM: TIMESTEP
10000
ITEM: NUMBER OF ATOMS
1
ITEM: BOX BOUNDS xy xz yz ff ff pp
0.0000000000000000e+00 5.0000000000000000e+01 0.0000000000000000e+00
0.0000000000000000e+00 5.0000000000000000e+01 0.0000000000000000e+00
-5.0000000000000000e+00 5.0000000000000000e+00 0.0000000000000000e+00
ITEM: ATOMS id fy
3 -0.0105646
ITEM: TIMESTEP
10100
ITEM: NUMBER OF ATOMS
1
ITEM: BOX BOUNDS xy xz yz ff ff pp
0.0000000000000000e+00 5.0000000000000000e+01 0.0000000000000000e+00
0.0000000000000000e+00 5.0000000000000000e+01 0.0000000000000000e+00
-5.0000000000000000e+00 5.0000000000000000e+00 0.0000000000000000e+00
ITEM: ATOMS id fy
3 -0.0171251
ITEM: TIMESTEP
10200
ITEM: NUMBER OF ATOMS
1
ITEM: BOX BOUNDS xy xz yz ff ff pp
0.0000000000000000e+00 5.0000000000000000e+01 0.0000000000000000e+00
0.0000000000000000e+00 5.0000000000000000e+01 0.0000000000000000e+00
-5.0000000000000000e+00 5.0000000000000000e+00 0.0000000000000000e+00
ITEM: ATOMS id fy
3 -0.0188472
ITEM: TIMESTEP
10300
ITEM: NUMBER OF ATOMS
1
ITEM: BOX BOUNDS xy xz yz ff ff pp
0.0000000000000000e+00 5.0000000000000000e+01 0.0000000000000000e+00
0.0000000000000000e+00 5.0000000000000000e+01 0.0000000000000000e+00
-5.0000000000000000e+00 5.0000000000000000e+00 0.0000000000000000e+00
ITEM: ATOMS id fy
3 -0.0174141
ITEM: TIMESTEP
10400
ITEM: NUMBER OF ATOMS
1
ITEM: BOX BOUNDS xy xz yz ff ff pp
0.0000000000000000e+00 5.0000000000000000e+01 0.0000000000000000e+00