ITEM: TIMESTEP
1000
ITEM: NUMBER OF ATOMS
1
ITEM: BOX BOUNDS xy xz yz ff ff pp
0.0000000000000000e+00 5.0000000000000000e+01 0.0000000000000000e+00
0.0000000000000000e+00 5.0000000000000000e+01 0.0000000000000000e+00
-5.0000000000000000e+00 5.0000000000000000e+00 0.0000000000000000e+00
ITEM: ATOMS id fy
3 -3.60131e-06
ITEM: TIMESTEP
1100
ITEM: NUMBER OF ATOMS
1
ITEM: BOX BOUNDS xy xz yz ff ff pp
0.0000000000000000e+00 5.0000000000000000e+01 0.0000000000000000e+00
0.0000000000000000e+00 5.0000000000000000e+01 0.0000000000000000e+00
-5.0000000000000000e+00 5.0000000000000000e+00 0.0000000000000000e+00
ITEM: ATOMS id fy
3 -2.90155
ITEM: TIMESTEP
1200
ITEM: NUMBER OF ATOMS
1
ITEM: BOX BOUNDS xy xz yz ff ff pp
0.0000000000000000e+00 5.0000000000000000e+01 0.0000000000000000e+00
0.0000000000000000e+00 5.0000000000000000e+01 0.0000000000000000e+00
-5.0000000000000000e+00 5.0000000000000000e+00 0.0000000000000000e+00
ITEM: ATOMS id fy
3 29.2642
ITEM: TIMESTEP
1300
ITEM: NUMBER OF ATOMS
1
ITEM: BOX BOUNDS xy xz yz ff ff pp
0.0000000000000000e+00 5.0000000000000000e+01 0.0000000000000000e+00
0.0000000000000000e+00 5.0000000000000000e+01 0.0000000000000000e+00
-5.0000000000000000e+00 5.0000000000000000e+00 0.0000000000000000e+00
ITEM: ATOMS id fy
3 6.56767
ITEM: TIMESTEP
1400
ITEM: NUMBER OF ATOMS
1
ITEM: BOX BOUNDS xy xz yz ff ff pp
0.0000000000000000e+00 5.0000000000000000e+01 0.0000000000000000e+00
0.0000000000000000e+00 5.0000000000000000e+01 0.0000000000000000e+00
-5.0000000000000000e+00 5.0000000000000000e+00 0.0000000000000000e+00
ITEM: ATOMS id fy
3 19.7764
ITEM: TIMESTEP
1500
ITEM: NUMBER OF ATOMS
1
ITEM: BOX BOUNDS xy xz yz ff ff pp
0.0000000000000000e+00 5.0000000000000000e+01 0.0000000000000000e+00
0.0000000000000000e+00 5.0000000000000000e+01 0.0000000000000000e+00
-5.0000000000000000e+00 5.0000000000000000e+00 0.0000000000000000e+00
ITEM: ATOMS id fy
3 -2.66548
ITEM: TIMESTEP
1600
ITEM: NUMBER OF ATOMS
1
ITEM: BOX BOUNDS xy xz yz ff ff pp
0.0000000000000000e+00 5.0000000000000000e+01 0.0000000000000000e+00
0.0000000000000000e+00 5.0000000000000000e+01 0.0000000000000000e+00
-5.0000000000000000e+00 5.0000000000000000e+00 0.0000000000000000e+00
ITEM: ATOMS id fy
3 -6.82266
ITEM: TIMESTEP
1700
ITEM: NUMBER OF ATOMS
1
ITEM: BOX BOUNDS xy xz yz ff ff pp
0.0000000000000000e+00 5.0000000000000000e+01 0.0000000000000000e+00
0.0000000000000000e+00 5.0000000000000000e+01 0.0000000000000000e+00
-5.0000000000000000e+00 5.0000000000000000e+00 0.0000000000000000e+00
ITEM: ATOMS id fy
3 -9.88729
ITEM: TIMESTEP
1800
ITEM: NUMBER OF ATOMS
1
ITEM: BOX BOUNDS xy xz yz ff ff pp
0.0000000000000000e+00 5.0000000000000000e+01 0.0000000000000000e+00
0.0000000000000000e+00 5.0000000000000000e+01 0.0000000000000000e+00
-5.0000000000000000e+00 5.0000000000000000e+00 0.0000000000000000e+00
ITEM: ATOMS id fy
3 7.91285
ITEM: TIMESTEP
1900
ITEM: NUMBER OF ATOMS
1
ITEM: BOX BOUNDS xy xz yz ff ff pp
0.0000000000000000e+00 5.0000000000000000e+01 0.0000000000000000e+00
0.0000000000000000e+00 5.0000000000000000e+01 0.0000000000000000e+00
-5.0000000000000000e+00 5.0000000000000000e+00 0.0000000000000000e+00
ITEM: ATOMS id fy
3 -2.94298
ITEM: TIMESTEP
2000
ITEM: NUMBER OF ATOMS
1
ITEM: BOX BOUNDS xy xz yz ff ff pp
0.0000000000000000e+00 5.0000000000000000e+01 0.0000000000000000e+00
0.0000000000000000e+00 5.0000000000000000e+01 0.0000000000000000e+00
-5.0000000000000000e+00 5.0000000000000000e+00 0.0000000000000000e+00
ITEM: ATOMS id fy
3 -6.25246
ITEM: TIMESTEP
2100
ITEM: NUMBER OF ATOMS
1
ITEM: BOX BOUNDS xy xz yz ff ff pp
0.0000000000000000e+00 5.0000000000000000e+01 0.0000000000000000e+00
0.0000000000000000e+00 5.0000000000000000e+01 0.0000000000000000e+00
-5.0000000000000000e+00 5.0000000000000000e+00 0.0000000000000000e+00
ITEM: ATOMS id fy
3 -1.01043
ITEM: TIMESTEP
2200
ITEM: NUMBER OF ATOMS
1
ITEM: BOX BOUNDS xy xz yz ff ff pp
0.0000000000000000e+00 5.0000000000000000e+01 0.0000000000000000e+00
0.0000000000000000e+00 5.0000000000000000e+01 0.0000000000000000e+00
-5.0000000000000000e+00 5.0000000000000000e+00 0.0000000000000000e+00
ITEM: ATOMS id fy
3 -2.14642
ITEM: TIMESTEP
2300
ITEM: NUMBER OF ATOMS
1
ITEM: BOX BOUNDS xy xz yz ff ff pp
0.0000000000000000e+00 5.0000000000000000e+01 0.0000000000000000e+00
0.0000000000000000e+00 5.0000000000000000e+01 0.0000000000000000e+00
-5.0000000000000000e+00 5.0000000000000000e+00 0.0000000000000000e+00
ITEM: ATOMS id fy
3 -1.03515
ITEM: TIMESTEP
2400
ITEM: NUMBER OF ATOMS
1
ITEM: BOX BOUNDS xy xz yz ff ff pp
0.0000000000000000e+00 5.0000000000000000e+01 0.0000000000000000e+00
0.0000000000000000e+00 5.0000000000000000e+01 0.0000000000000000e+00
-5.0000000000000000e+00 5.0000000000000000e+00 0.0000000000000000e+00
ITEM: ATOMS id fy
3 -7.38584
ITEM: TIMESTEP
2500
ITEM: NUMBER OF ATOMS
1
ITEM: BOX BOUNDS xy xz yz ff ff pp
0.0000000000000000e+00 5.0000000000000000e+01 0.0000000000000000e+00
0.0000000000000000e+00 5.0000000000000000e+01 0.0000000000000000e+00
-5.0000000000000000e+00 5.0000000000000000e+00 0.0000000000000000e+00
ITEM: ATOMS id fy
3 -3.05517
ITEM: TIMESTEP
2600
ITEM: NUMBER OF ATOMS
1
ITEM: BOX BOUNDS xy xz yz ff ff pp
0.0000000000000000e+00 5.0000000000000000e+01 0.0000000000000000e+00
0.0000000000000000e+00 5.0000000000000000e+01 0.0000000000000000e+00
-5.0000000000000000e+00 5.0000000000000000e+00 0.0000000000000000e+00
ITEM: ATOMS id fy
3 -9.15366
ITEM: TIMESTEP
2700
ITEM: NUMBER OF ATOMS
1
ITEM: BOX BOUNDS xy xz yz ff ff pp
0.0000000000000000e+00 5.0000000000000000e+01 0.0000000000000000e+00
0.0000000000000000e+00 5.0000000000000000e+01 0.0000000000000000e+00
-5.0000000000000000e+00 5.0000000000000000e+00 0.0000000000000000e+00
ITEM: ATOMS id fy
3 1.77203
ITEM: TIMESTEP
2800
ITEM: NUMBER OF ATOMS
1
ITEM: BOX BOUNDS xy xz yz ff ff pp
0.0000000000000000e+00 5.0000000000000000e+01 0.0000000000000000e+00
0.0000000000000000e+00 5.0000000000000000e+01 0.0000000000000000e+00
-5.0000000000000000e+00 5.0000000000000000e+00 0.0000000000000000e+00
ITEM: ATOMS id fy
3 -0.918776
ITEM: TIMESTEP
2900
ITEM: NUMBER OF ATOMS
1
ITEM: BOX BOUNDS xy xz yz ff ff pp
0.0000000000000000e+00 5.0000000000000000e+01 0.0000000000000000e+00
0.0000000000000000e+00 5.0000000000000000e+01 0.0000000000000000e+00
-5.0000000000000000e+00 5.0000000000000000e+00 0.0000000000000000e+00
ITEM: ATOMS id fy
3 2.44973
ITEM: TIMESTEP
3000
ITEM: NUMBER OF ATOMS
1
ITEM: BOX BOUNDS xy xz yz ff ff pp
0.0000000000000000e+00 5.0000000000000000e+01 0.0000000000000000e+00
0.0000000000000000e+00 5.0000000000000000e+01 0.0000000000000000e+00
-5.0000000000000000e+00 5.0000000000000000e+00 0.0000000000000000e+00
ITEM: ATOMS id fy
3 0.764034
ITEM: TIMESTEP
3100
ITEM: NUMBER OF ATOMS
1
ITEM: BOX BOUNDS xy xz yz ff ff pp
0.0000000000000000e+00 5.0000000000000000e+01 0.0000000000000000e+00
0.0000000000000000e+00 5.0000000000000000e+01 0.0000000000000000e+00
-5.0000000000000000e+00 5.0000000000000000e+00 0.0000000000000000e+00
ITEM: ATOMS id fy
3 0.2878
ITEM: TIMESTEP
3200
ITEM: NUMBER OF ATOMS
1
ITEM: BOX BOUNDS xy xz yz ff ff pp
0.0000000000000000e+00 5.0000000000000000e+01 0.0000000000000000e+00
0.0000000000000000e+00 5.0000000000000000e+01 0.0000000000000000e+00
-5.0000000000000000e+00 5.0000000000000000e+00 0.0000000000000000e+00
ITEM: ATOMS id fy
3 -1.30812
ITEM: TIMESTEP
3300
ITEM: NUMBER OF ATOMS
1
ITEM: BOX BOUNDS xy xz yz ff ff pp
0.0000000000000000e+00 5.0000000000000000e+01 0.0000000000000000e+00
0.0000000000000000e+00 5.0000000000000000e+01 0.0000000000000000e+00
-5.0000000000000000e+00 5.0000000000000000e+00 0.0000000000000000e+00
ITEM: ATOMS id fy
3 -1.3461
ITEM: TIMESTEP
3400
ITEM: NUMBER OF ATOMS
1
ITEM: BOX BOUNDS xy xz yz ff ff pp
0.0000000000000000e+00 5.0000000000000000e+01 0.0000000000000000e+00
0.0000000000000000e+00 5.0000000000000000e+01 0.0000000000000000e+00
-5.0000000000000000e+00 5.0000000000000000e+00 0.0000000000000000e+00
ITEM: ATOMS id fy
3 -0.670346
ITEM: TIMESTEP
3500
ITEM: NUMBER OF ATOMS
1
ITEM: BOX BOUNDS xy xz yz ff ff pp
0.0000000000000000e+00 5.0000000000000000e+01 0.0000000000000000e+00
0.0000000000000000e+00 5.0000000000000000e+01 0.0000000000000000e+00
-5.0000000000000000e+00 5.0000000000000000e+00 0.0000000000000000e+00
ITEM: ATOMS id fy
3 0.397324
ITEM: TIMESTEP
3600
ITEM: NUMBER OF ATOMS
1
ITEM: BOX BOUNDS xy xz yz ff ff pp
0.0000000000000000e+00 5.0000000000000000e+01 0.0000000000000000e+00
0.0000000000000000e+00 5.0000000000000000e+01 0.0000000000000000e+00
-5.0000000000000000e+00 5.0000000000000000e+00 0.0000000000000000e+00
ITEM: ATOMS id fy
3 0.937875
ITEM: TIMESTEP
3700
ITEM: NUMBER OF ATOMS
1
ITEM: BOX BOUNDS xy xz yz ff ff pp
0.0000000000000000e+00 5.0000000000000000e+01 0.0000000000000000e+00
0.0000000000000000e+00 5.0000000000000000e+01 0.0000000000000000e+00
-5.0000000000000000e+00 5.0000000000000000e+00 0.0000000000000000e+00
ITEM: ATOMS id fy
3 1.09222
ITEM: TIMESTEP
3800
ITEM: NUMBER OF ATOMS
1
ITEM: BOX BOUNDS xy xz yz ff ff pp
0.0000000000000000e+00 5.0000000000000000e+01 0.0000000000000000e+00
0.0000000000000000e+00 5.0000000000000000e+01 0.0000000000000000e+00
-5.0000000000000000e+00 5.0000000000000000e+00 0.0000000000000000e+00
ITEM: ATOMS id fy
3 0.605251
ITEM: TIMESTEP
3900
ITEM: NUMBER OF ATOMS
1
ITEM: BOX BOUNDS xy xz yz ff ff pp
0.0000000000000000e+00 5.0000000000000000e+01 0.0000000000000000e+00
0.0000000000000000e+00 5.0000000000000000e+01 0.0000000000000000e+00
-5.0000000000000000e+00 5.0000000000000000e+00 0.0000000000000000e+00
ITEM: ATOMS id fy
3 -0.0364111
ITEM: TIMESTEP
4000
ITEM: NUMBER OF ATOMS
1
ITEM: BOX BOUNDS xy xz yz ff ff pp
0.0000000000000000e+00 5.0000000000000000e+01 0.0000000000000000e+00
0.0000000000000000e+00 5.0000000000000000e+01 0.0000000000000000e+00
-5.0000000000000000e+00 5.0000000000000000e+00 0.0000000000000000e+00
ITEM: ATOMS id fy
3 -0.539678
ITEM: TIMESTEP
4100
ITEM: NUMBER OF ATOMS
1
ITEM: BOX BOUNDS xy xz yz ff ff pp
0.0000000000000000e+00 5.0000000000000000e+01 0.0000000000000000e+00
0.0000000000000000e+00 5.0000000000000000e+01 0.0000000000000000e+00
-5.0000000000000000e+00 5.0000000000000000e+00 0.0000000000000000e+00
ITEM: ATOMS id fy
3 -0.567319
ITEM: TIMESTEP
4200
ITEM: NUMBER OF ATOMS
1
ITEM: BOX BOUNDS xy xz yz ff ff pp
0.0000000000000000e+00 5.0000000000000000e+01 0.0000000000000000e+00
0.0000000000000000e+00 5.0000000000000000e+01 0.0000000000000000e+00
-5.0000000000000000e+00 5.0000000000000000e+00 0.0000000000000000e+00
ITEM: ATOMS id fy
3 -0.269854
ITEM: TIMESTEP
4300
ITEM: NUMBER OF ATOMS
1
ITEM: BOX BOUNDS xy xz yz ff ff pp
0.0000000000000000e+00 5.0000000000000000e+01 0.0000000000000000e+00
0.0000000000000000e+00 5.0000000000000000e+01 0.0000000000000000e+00
-5.0000000000000000e+00 5.0000000000000000e+00 0.0000000000000000e+00
ITEM: ATOMS id fy
3 0.11092
ITEM: TIMESTEP
4400
ITEM: NUMBER OF ATOMS
1
ITEM: BOX BOUNDS xy xz yz ff ff pp
0.0000000000000000e+00 5.0000000000000000e+01 0.0000000000000000e+00
0.0000000000000000e+00 5.0000000000000000e+01 0.0000000000000000e+00
-5.0000000000000000e+00 5.0000000000000000e+00 0.0000000000000000e+00
ITEM: ATOMS id fy
3 0.328669
ITEM: TIMESTEP
4500
ITEM: NUMBER OF ATOMS
1
ITEM: BOX BOUNDS xy xz yz ff ff pp
0.0000000000000000e+00 5.0000000000000000e+01 0.0000000000000000e+00
0.0000000000000000e+00 5.0000000000000000e+01 0.0000000000000000e+00
-5.0000000000000000e+00 5.0000000000000000e+00 0.0000000000000000e+00
ITEM: ATOMS id fy
3 0.305141
ITEM: TIMESTEP
4600
ITEM: NUMBER OF ATOMS
1
ITEM: BOX BOUNDS xy xz yz ff ff pp
0.0000000000000000e+00 5.0000000000000000e+01 0.0000000000000000e+00
0.0000000000000000e+00 5.0000000000000000e+01 0.0000000000000000e+00
-5.0000000000000000e+00 5.0000000000000000e+00 0.0000000000000000e+00
ITEM: ATOMS id fy
3 0.0884328
ITEM: TIMESTEP
4700
ITEM: NUMBER OF ATOMS
1
ITEM: BOX BOUNDS xy xz yz ff ff pp
0.0000000000000000e+00 5.0000000000000000e+01 0.0000000000000000e+00
0.0000000000000000e+00 5.0000000000000000e+01 0.0000000000000000e+00
-5.0000000000000000e+00 5.0000000000000000e+00 0.0000000000000000e+00
ITEM: ATOMS id fy
3 -0.164482
ITEM: TIMESTEP
4800
ITEM: NUMBER OF ATOMS
1
ITEM: BOX BOUNDS xy xz yz ff ff pp
0.0000000000000000e+00 5.0000000000000000e+01 0.0000000000000000e+00
0.0000000000000000e+00 5.0000000000000000e+01 0.0000000000000000e+00
-5.0000000000000000e+00 5.0000000000000000e+00 0.0000000000000000e+00
ITEM: ATOMS id fy
3 -0.296578
ITEM: TIMESTEP
4900
ITEM: NUMBER OF ATOMS
1
ITEM: BOX BOUNDS xy xz yz ff ff pp
0.0000000000000000e+00 5.0000000000000000e+01 0.0000000000000000e+00
0.0000000000000000e+00 5.0000000000000000e+01 0.0000000000000000e+00
-5.0000000000000000e+00 5.0000000000000000e+00 0.0000000000000000e+00
ITEM: ATOMS id fy
3 -0.254678
ITEM: TIMESTEP
5000
ITEM: NUMBER OF ATOMS
1
ITEM: BOX BOUNDS xy xz yz ff ff pp
0.0000000000000000e+00 5.0000000000000000e+01 0.0000000000000000e+00
0.0000000000000000e+00 5.0000000000000000e+01 0.0000000000000000e+00
-5.0000000000000000e+00 5.0000000000000000e+00 0.0000000000000000e+00
ITEM: ATOMS id fy
3 -0.0954734
ITEM: TIMESTEP
5100
ITEM: NUMBER OF ATOMS
1
ITEM: BOX BOUNDS xy xz yz ff ff pp
0.0000000000000000e+00 5.0000000000000000e+01 0.0000000000000000e+00
0.0000000000000000e+00 5.0000000000000000e+01 0.0000000000000000e+00
-5.0000000000000000e+00 5.0000000000000000e+00 0.0000000000000000e+00
ITEM: ATOMS id fy
3 0.0734299
ITEM: TIMESTEP
5200
ITEM: NUMBER OF ATOMS
1
ITEM: BOX BOUNDS xy xz yz ff ff pp
0.0000000000000000e+00 5.0000000000000000e+01 0.0000000000000000e+00
0.0000000000000000e+00 5.0000000000000000e+01 0.0000000000000000e+00
-5.0000000000000000e+00 5.0000000000000000e+00 0.0000000000000000e+00
ITEM: ATOMS id fy
3 0.161797
ITEM: TIMESTEP
5300
ITEM: NUMBER OF ATOMS
1
ITEM: BOX BOUNDS xy xz yz ff ff pp
0.0000000000000000e+00 5.0000000000000000e+01 0.0000000000000000e+00
0.0000000000000000e+00 5.0000000000000000e+01 0.0000000000000000e+00
-5.0000000000000000e+00 5.0000000000000000e+00 0.0000000000000000e+00
ITEM: ATOMS id fy
3 0.141347
ITEM: TIMESTEP
5400
ITEM: NUMBER OF ATOMS
1
ITEM: BOX BOUNDS xy xz yz ff ff pp
0.0000000000000000e+00 5.0000000000000000e+01 0.0000000000000000e+00
0.0000000000000000e+00 5.0000000000000000e+01 0.0000000000000000e+00
-5.0000000000000000e+00 5.0000000000000000e+00 0.0000000000000000e+00
ITEM: ATOMS id fy
3 0.677114
ITEM: TIMESTEP
5500
ITEM: NUMBER OF ATOMS
1
ITEM: BOX BOUNDS xy xz yz ff ff pp
0.0000000000000000e+00 5.0000000000000000e+01 0.0000000000000000e+00
0.0000000000000000e+00 5.0000000000000000e+01 0.0000000000000000e+00
-5.0000000000000000e+00 5.0000000000000000e+00 0.0000000000000000e+00
ITEM: ATOMS id fy
3 -0.244671
ITEM: TIMESTEP
5600
ITEM: NUMBER OF ATOMS
1
ITEM: BOX BOUNDS xy xz yz ff ff pp
0.0000000000000000e+00 5.0000000000000000e+01 0.0000000000000000e+00
0.0000000000000000e+00 5.0000000000000000e+01 0.0000000000000000e+00
-5.0000000000000000e+00 5.0000000000000000e+00 0.0000000000000000e+00
ITEM: ATOMS id fy
3 0.160789
ITEM: TIMESTEP
5700
ITEM: NUMBER OF ATOMS
1
ITEM: BOX BOUNDS xy xz yz ff ff pp
0.0000000000000000e+00 5.0000000000000000e+01 0.0000000000000000e+00
0.0000000000000000e+00 5.0000000000000000e+01 0.0000000000000000e+00
-5.0000000000000000e+00 5.0000000000000000e+00 0.0000000000000000e+00
ITEM: ATOMS id fy
3 -0.131046
ITEM: TIMESTEP
5800
ITEM: NUMBER OF ATOMS
1
ITEM: BOX BOUNDS xy xz yz ff ff pp
0.0000000000000000e+00 5.0000000000000000e+01 0.0000000000000000e+00
0.0000000000000000e+00 5.0000000000000000e+01 0.0000000000000000e+00
-5.0000000000000000e+00 5.0000000000000000e+00 0.0000000000000000e+00
ITEM: ATOMS id fy
3 -0.459599
ITEM: TIMESTEP
5900
ITEM: NUMBER OF ATOMS
1
ITEM: BOX BOUNDS xy xz yz ff ff pp
0.0000000000000000e+00 5.0000000000000000e+01 0.0000000000000000e+00
0.0000000000000000e+00 5.0000000000000000e+01 0.0000000000000000e+00
-5.0000000000000000e+00 5.0000000000000000e+00 0.0000000000000000e+00
ITEM: ATOMS id fy
3 -0.0177701
ITEM: TIMESTEP
6000
ITEM: NUMBER OF ATOMS
1
ITEM: BOX BOUNDS xy xz yz ff ff pp
0.0000000000000000e+00 5.0000000000000000e+01 0.0000000000000000e+00
0.0000000000000000e+00 5.0000000000000000e+01 0.0000000000000000e+00
-5.0000000000000000e+00 5.0000000000000000e+00 0.0000000000000000e+00
ITEM: ATOMS id fy
3 -0.0404376
ITEM: TIMESTEP
6100
ITEM: NUMBER OF ATOMS
1
ITEM: BOX BOUNDS xy xz yz ff ff pp
0.0000000000000000e+00 5.0000000000000000e+01 0.0000000000000000e+00
0.0000000000000000e+00 5.0000000000000000e+01 0.0000000000000000e+00
-5.0000000000000000e+00 5.0000000000000000e+00 0.0000000000000000e+00
ITEM: ATOMS id fy
3 0.111618
ITEM: TIMESTEP
6200
ITEM: NUMBER OF ATOMS
1
ITEM: BOX BOUNDS xy xz yz ff ff pp
0.0000000000000000e+00 5.0000000000000000e+01 0.0000000000000000e+00
0.0000000000000000e+00 5.0000000000000000e+01 0.0000000000000000e+00
-5.0000000000000000e+00 5.0000000000000000e+00 0.0000000000000000e+00
ITEM: ATOMS id fy
3 -0.074775
ITEM: TIMESTEP
6300
ITEM: NUMBER OF ATOMS
1
ITEM: BOX BOUNDS xy xz yz ff ff pp
0.0000000000000000e+00 5.0000000000000000e+01 0.0000000000000000e+00
0.0000000000000000e+00 5.0000000000000000e+01 0.0000000000000000e+00
-5.0000000000000000e+00 5.0000000000000000e+00 0.0000000000000000e+00
ITEM: ATOMS id fy
3 -0.0996008
ITEM: TIMESTEP
6400
ITEM: NUMBER OF ATOMS
1
ITEM: BOX BOUNDS xy xz yz ff ff pp
0.0000000000000000e+00 5.0000000000000000e+01 0.0000000000000000e+00
0.0000000000000000e+00 5.0000000000000000e+01 0.0000000000000000e+00
-5.0000000000000000e+00 5.0000000000000000e+00 0.0000000000000000e+00
ITEM: ATOMS id fy
3 -0.150832
ITEM: TIMESTEP
6500
ITEM: NUMBER OF ATOMS
1
ITEM: BOX BOUNDS xy xz yz ff ff pp
0.0000000000000000e+00 5.0000000000000000e+01 0.0000000000000000e+00
0.0000000000000000e+00 5.0000000000000000e+01 0.0000000000000000e+00
-5.0000000000000000e+00 5.0000000000000000e+00 0.0000000000000000e+00
ITEM: ATOMS id fy
3 -0.0612744
ITEM: TIMESTEP
6600
ITEM: NUMBER OF ATOMS
1
ITEM: BOX BOUNDS xy xz yz ff ff pp
0.0000000000000000e+00 5.0000000000000000e+01 0.0000000000000000e+00
0.0000000000000000e+00 5.0000000000000000e+01 0.0000000000000000e+00
-5.0000000000000000e+00 5.0000000000000000e+00 0.0000000000000000e+00
ITEM: ATOMS id fy
3 -0.0421011
ITEM: TIMESTEP
6700
ITEM: NUMBER OF ATOMS
1
ITEM: BOX BOUNDS xy xz yz ff ff pp
0.0000000000000000e+00 5.0000000000000000e+01 0.0000000000000000e+00
0.0000000000000000e+00 5.0000000000000000e+01 0.0000000000000000e+00
-5.0000000000000000e+00 5.0000000000000000e+00 0.0000000000000000e+00
ITEM: ATOMS id fy
3 0.0110567
ITEM: TIMESTEP
6800
ITEM: NUMBER OF ATOMS
1
ITEM: BOX BOUNDS xy xz yz ff ff pp
0.0000000000000000e+00 5.0000000000000000e+01 0.0000000000000000e+00
0.0000000000000000e+00 5.0000000000000000e+01 0.0000000000000000e+00
-5.0000000000000000e+00 5.0000000000000000e+00 0.0000000000000000e+00
ITEM: ATOMS id fy
3 0.0321435
ITEM: TIMESTEP
6900
ITEM: NUMBER OF ATOMS
1
ITEM: BOX BOUNDS xy xz yz ff ff pp
0.0000000000000000e+00 5.0000000000000000e+01 0.0000000000000000e+00
0.0000000000000000e+00 5.0000000000000000e+01 0.0000000000000000e+00
-5.0000000000000000e+00 5.0000000000000000e+00 0.0000000000000000e+00
ITEM: ATOMS id fy
3 0.0473053
ITEM: TIMESTEP
7000
ITEM: NUMBER OF ATOMS
1
ITEM: BOX BOUNDS xy xz yz ff ff pp
0.0000000000000000e+00 5.0000000000000000e+01 0.0000000000000000e+00
0.0000000000000000e+00 5.0000000000000000e+01 0.0000000000000000e+00
-5.0000000000000000e+00 5.0000000000000000e+00 0.0000000000000000e+00
ITEM: ATOMS id fy
3 -0.0065768
ITEM: TIMESTEP
7100
ITEM: NUMBER OF ATOMS
1
ITEM: BOX BOUNDS xy xz yz ff ff pp
0.0000000000000000e+00 5.0000000000000000e+01 0.0000000000000000e+00
0.0000000000000000e+00 5.0000000000000000e+01 0.0000000000000000e+00
-5.0000000000000000e+00 5.0000000000000000e+00 0.0000000000000000e+00
ITEM: ATOMS id fy
3 0.00640945
ITEM: TIMESTEP
7200
ITEM: NUMBER OF ATOMS
1
ITEM: BOX BOUNDS xy xz yz ff ff pp
0.0000000000000000e+00 5.0000000000000000e+01 0.0000000000000000e+00
0.0000000000000000e+00 5.0000000000000000e+01 0.0000000000000000e+00
-5.0000000000000000e+00 5.0000000000000000e+00 0.0000000000000000e+00
ITEM: ATOMS id fy
3 0.0246262
ITEM: TIMESTEP
7300
ITEM: NUMBER OF ATOMS
1
ITEM: BOX BOUNDS xy xz yz ff ff pp
0.0000000000000000e+00 5.0000000000000000e+01 0.0000000000000000e+00
0.0000000000000000e+00 5.0000000000000000e+01 0.0000000000000000e+00
-5.0000000000000000e+00 5.0000000000000000e+00 0.0000000000000000e+00
ITEM: ATOMS id fy
3 0.0431329
ITEM: TIMESTEP
7400
ITEM: NUMBER OF ATOMS
1
ITEM: BOX BOUNDS xy xz yz ff ff pp
0.0000000000000000e+00 5.0000000000000000e+01 0.0000000000000000e+00
0.0000000000000000e+00 5.0000000000000000e+01 0.0000000000000000e+00
-5.0000000000000000e+00 5.0000000000000000e+00 0.0000000000000000e+00
ITEM: ATOMS id fy
3 -0.0834545
ITEM: TIMESTEP
7500
ITEM: NUMBER OF ATOMS
1
ITEM: BOX BOUNDS xy xz yz ff ff pp
0.0000000000000000e+00 5.0000000000000000e+01 0.0000000000000000e+00
0.0000000000000000e+00 5.0000000000000000e+01 0.0000000000000000e+00
-5.0000000000000000e+00 5.0000000000000000e+00 0.0000000000000000e+00
ITEM: ATOMS id fy
3 0.0991714
ITEM: TIMESTEP
7600
ITEM: NUMBER OF ATOMS
1
ITEM: BOX BOUNDS xy xz yz ff ff pp
0.0000000000000000e+00 5.0000000000000000e+01 0.0000000000000000e+00
0.0000000000000000e+00 5.0000000000000000e+01 0.0000000000000000e+00
-5.0000000000000000e+00 5.0000000000000000e+00 0.0000000000000000e+00
ITEM: ATOMS id fy
3 0.0114261
ITEM: TIMESTEP
7700
ITEM: NUMBER OF ATOMS
1
ITEM: BOX BOUNDS xy xz yz ff ff pp
0.0000000000000000e+00 5.0000000000000000e+01 0.0000000000000000e+00
0.0000000000000000e+00 5.0000000000000000e+01 0.0000000000000000e+00
-5.0000000000000000e+00 5.0000000000000000e+00 0.0000000000000000e+00
ITEM: ATOMS id fy
3 0.0251606
ITEM: TIMESTEP
7800
ITEM: NUMBER OF ATOMS
1
ITEM: BOX BOUNDS xy xz yz ff ff pp
0.0000000000000000e+00 5.0000000000000000e+01 0.0000000000000000e+00
0.0000000000000000e+00 5.0000000000000000e+01 0.0000000000000000e+00
-5.0000000000000000e+00 5.0000000000000000e+00 0.0000000000000000e+00
ITEM: ATOMS id fy
3 -0.0244662
ITEM: TIMESTEP
7900
ITEM: NUMBER OF ATOMS
1
ITEM: BOX BOUNDS xy xz yz ff ff pp
0.0000000000000000e+00 5.0000000000000000e+01 0.0000000000000000e+00
0.0000000000000000e+00 5.0000000000000000e+01 0.0000000000000000e+00
-5.0000000000000000e+00 5.0000000000000000e+00 0.0000000000000000e+00
ITEM: ATOMS id fy
3 0.00223401
ITEM: TIMESTEP
8000
ITEM: NUMBER OF ATOMS
1
ITEM: BOX BOUNDS xy xz yz ff ff pp
0.0000000000000000e+00 5.0000000000000000e+01 0.0000000000000000e+00
0.0000000000000000e+00 5.0000000000000000e+01 0.0000000000000000e+00
-5.0000000000000000e+00 5.0000000000000000e+00 0.0000000000000000e+00
ITEM: ATOMS id fy
3 -0.0131517
ITEM: TIMESTEP
8100
ITEM: NUMBER OF ATOMS
1
ITEM: BOX BOUNDS xy xz yz ff ff pp
0.0000000000000000e+00 5.0000000000000000e+01 0.0000000000000000e+00
0.0000000000000000e+00 5.0000000000000000e+01 0.0000000000000000e+00
-5.0000000000000000e+00 5.0000000000000000e+00 0.0000000000000000e+00
ITEM: ATOMS id fy
3 0.0040936
ITEM: TIMESTEP
8200
ITEM: NUMBER OF ATOMS
1
ITEM: BOX BOUNDS xy xz yz ff ff pp
0.0000000000000000e+00 5.0000000000000000e+01 0.0000000000000000e+00
0.0000000000000000e+00 5.0000000000000000e+01 0.0000000000000000e+00
-5.0000000000000000e+00 5.0000000000000000e+00 0.0000000000000000e+00
ITEM: ATOMS id fy
3 0.00689068
ITEM: TIMESTEP
8300
ITEM: NUMBER OF ATOMS
1
ITEM: BOX BOUNDS xy xz yz ff ff pp
0.0000000000000000e+00 5.0000000000000000e+01 0.0000000000000000e+00
0.0000000000000000e+00 5.0000000000000000e+01 0.0000000000000000e+00
-5.0000000000000000e+00 5.0000000000000000e+00 0.0000000000000000e+00
ITEM: ATOMS id fy
3 -0.00965351
ITEM: TIMESTEP
8400
ITEM: NUMBER OF ATOMS
1
ITEM: BOX BOUNDS xy xz yz ff ff pp
0.0000000000000000e+00 5.0000000000000000e+01 0.0000000000000000e+00
0.0000000000000000e+00 5.0000000000000000e+01 0.0000000000000000e+00
-5.0000000000000000e+00 5.0000000000000000e+00 0.0000000000000000e+00
ITEM: ATOMS id fy
3 0.00433377
ITEM: TIMESTEP
8500
ITEM: NUMBER OF ATOMS
1
ITEM: BOX BOUNDS xy xz yz ff ff pp
0.0000000000000000e+00 5.0000000000000000e+01 0.0000000000000000e+00
0.0000000000000000e+00 5.0000000000000000e+01 0.0000000000000000e+00
-5.0000000000000000e+00 5.0000000000000000e+00 0.0000000000000000e+00
ITEM: ATOMS id fy
3 -0.0180527
ITEM: TIMESTEP
8600
ITEM: NUMBER OF ATOMS
1
ITEM: BOX BOUNDS xy xz yz ff ff pp
0.0000000000000000e+00 5.0000000000000000e+01 0.0000000000000000e+00
0.0000000000000000e+00 5.0000000000000000e+01 0.0000000000000000e+00
-5.0000000000000000e+00 5.0000000000000000e+00 0.0000000000000000e+00
ITEM: ATOMS id fy
3 -0.0127226
ITEM: TIMESTEP
8700
ITEM: NUMBER OF ATOMS
1
ITEM: BOX BOUNDS xy xz yz ff ff pp
0.0000000000000000e+00 5.0000000000000000e+01 0.0000000000000000e+00
0.0000000000000000e+00 5.0000000000000000e+01 0.0000000000000000e+00
-5.0000000000000000e+00 5.0000000000000000e+00 0.0000000000000000e+00
ITEM: ATOMS id fy
3 -0.333513
ITEM: TIMESTEP
8800
ITEM: NUMBER OF ATOMS
1
ITEM: BOX BOUNDS xy xz yz ff ff pp
0.0000000000000000e+00 5.0000000000000000e+01 0.0000000000000000e+00
0.0000000000000000e+00 5.0000000000000000e+01 0.0000000000000000e+00
-5.0000000000000000e+00 5.0000000000000000e+00 0.0000000000000000e+00
ITEM: ATOMS id fy
3 -0.0860106
ITEM: TIMESTEP
8900
ITEM: NUMBER OF ATOMS
1
ITEM: BOX BOUNDS xy xz yz ff ff pp
0.0000000000000000e+00 5.0000000000000000e+01 0.0000000000000000e+00
0.0000000000000000e+00 5.0000000000000000e+01 0.0000000000000000e+00
-5.0000000000000000e+00 5.0000000000000000e+00 0.0000000000000000e+00
ITEM: ATOMS id fy
3 -0.0537027
ITEM: TIMESTEP
9000
ITEM: NUMBER OF ATOMS
1
ITEM: BOX BOUNDS xy xz yz ff ff pp
0.0000000000000000e+00 5.0000000000000000e+01 0.0000000000000000e+00
0.0000000000000000e+00 5.0000000000000000e+01 0.0000000000000000e+00
-5.0000000000000000e+00 5.0000000000000000e+00 0.0000000000000000e+00
ITEM: ATOMS id fy
3 0.0191391
ITEM: TIMESTEP
9100
ITEM: NUMBER OF ATOMS
1
ITEM: BOX BOUNDS xy xz yz ff ff pp
0.0000000000000000e+00 5.0000000000000000e+01 0.0000000000000000e+00
0.0000000000000000e+00 5.0000000000000000e+01 0.0000000000000000e+00
-5.0000000000000000e+00 5.0000000000000000e+00 0.0000000000000000e+00
ITEM: ATOMS id fy
3 0.0256758
ITEM: TIMESTEP
9200
ITEM: NUMBER OF ATOMS
1
ITEM: BOX BOUNDS xy xz yz ff ff pp
0.0000000000000000e+00 5.0000000000000000e+01 0.0000000000000000e+00
0.0000000000000000e+00 5.0000000000000000e+01 0.0000000000000000e+00
-5.0000000000000000e+00 5.0000000000000000e+00 0.0000000000000000e+00
ITEM: ATOMS id fy
3 0.0186359
ITEM: TIMESTEP
9300
ITEM: NUMBER OF ATOMS
1
ITEM: BOX BOUNDS xy xz yz ff ff pp
0.0000000000000000e+00 5.0000000000000000e+01 0.0000000000000000e+00
0.0000000000000000e+00 5.0000000000000000e+01 0.0000000000000000e+00
-5.0000000000000000e+00 5.0000000000000000e+00 0.0000000000000000e+00
ITEM: ATOMS id fy
3 -0.00936886
ITEM: TIMESTEP
9400
ITEM: NUMBER OF ATOMS
1
ITEM: BOX BOUNDS xy xz yz ff ff pp
0.0000000000000000e+00 5.0000000000000000e+01 0.0000000000000000e+00
0.0000000000000000e+00 5.0000000000000000e+01 0.0000000000000000e+00
-5.0000000000000000e+00 5.0000000000000000e+00 0.0000000000000000e+00
ITEM: ATOMS id fy
3 -0.000903964
ITEM: TIMESTEP
9500
ITEM: NUMBER OF ATOMS
1
ITEM: BOX BOUNDS xy xz yz ff ff pp
0.0000000000000000e+00 5.0000000000000000e+01 0.0000000000000000e+00
0.0000000000000000e+00 5.0000000000000000e+01 0.0000000000000000e+00
-5.0000000000000000e+00 5.0000000000000000e+00 0.0000000000000000e+00
ITEM: ATOMS id fy
3 -0.00555944
ITEM: TIMESTEP
9600
ITEM: NUMBER OF ATOMS
1
ITEM: BOX BOUNDS xy xz yz ff ff pp
0.0000000000000000e+00 5.0000000000000000e+01 0.0000000000000000e+00
0.0000000000000000e+00 5.0000000000000000e+01 0.0000000000000000e+00
-5.0000000000000000e+00 5.0000000000000000e+00 0.0000000000000000e+00
ITEM: ATOMS id fy
3 0.00970439
ITEM: TIMESTEP
9700
ITEM: NUMBER OF ATOMS
1
ITEM: BOX BOUNDS xy xz yz ff ff pp
0.0000000000000000e+00 5.0000000000000000e+01 0.0000000000000000e+00
0.0000000000000000e+00 5.0000000000000000e+01 0.0000000000000000e+00
-5.0000000000000000e+00 5.0000000000000000e+00 0.0000000000000000e+00
ITEM: ATOMS id fy
3 0.00885903
ITEM: TIMESTEP
9800
ITEM: NUMBER OF ATOMS
1
ITEM: BOX BOUNDS xy xz yz ff ff pp
0.0000000000000000e+00 5.0000000000000000e+01 0.0000000000000000e+00
0.0000000000000000e+00 5.0000000000000000e+01 0.0000000000000000e+00
-5.0000000000000000e+00 5.0000000000000000e+00 0.0000000000000000e+00
ITEM: ATOMS id fy
3 0.00846084
ITEM: TIMESTEP
9900
ITEM: NUMBER OF ATOMS
1
ITEM: BOX BOUNDS xy xz yz ff ff pp
0.0000000000000000e+00 5.0000000000000000e+01 0.0000000000000000e+00
0.0000000000000000e+00 5.0000000000000000e+01 0.0000000000000000e+00
-5.0000000000000000e+00 5.0000000000000000e+00 0.0000000000000000e+00
ITEM: ATOMS id fy
3 0.00423887
ITEM: TIMESTEP
10000
ITEM: NUMBER OF ATOMS
1
ITEM: BOX BOUNDS xy xz yz ff ff pp
0.0000000000000000e+00 5.0000000000000000e+01 0.0000000000000000e+00
0.0000000000000000e+00 5.0000000000000000e+01 0.0000000000000000e+00
-5.0000000000000000e+00 5.0000000000000000e+00 0.0000000000000000e+00
ITEM: ATOMS id fy
3 -0.000889574
ITEM: TIMESTEP
10100
ITEM: NUMBER OF ATOMS
1
ITEM: BOX BOUNDS xy xz yz ff ff pp
0.0000000000000000e+00 5.0000000000000000e+01 0.0000000000000000e+00
0.0000000000000000e+00 5.0000000000000000e+01 0.0000000000000000e+00
-5.0000000000000000e+00 5.0000000000000000e+00 0.0000000000000000e+00
ITEM: ATOMS id fy
3 -0.00228627
ITEM: TIMESTEP
10200
ITEM: NUMBER OF ATOMS
1
ITEM: BOX BOUNDS xy xz yz ff ff pp
0.0000000000000000e+00 5.0000000000000000e+01 0.0000000000000000e+00
0.0000000000000000e+00 5.0000000000000000e+01 0.0000000000000000e+00
-5.0000000000000000e+00 5.0000000000000000e+00 0.0000000000000000e+00
ITEM: ATOMS id fy
3 -0.0027696
ITEM: TIMESTEP
10300
ITEM: NUMBER OF ATOMS
1
ITEM: BOX BOUNDS xy xz yz ff ff pp
0.0000000000000000e+00 5.0000000000000000e+01 0.0000000000000000e+00
0.0000000000000000e+00 5.0000000000000000e+01 0.0000000000000000e+00
-5.0000000000000000e+00 5.0000000000000000e+00 0.0000000000000000e+00
ITEM: ATOMS id fy
3 -0.0309364
ITEM: TIMESTEP
10400
ITEM: NUMBER OF ATOMS
1
ITEM: BOX BOUNDS xy xz yz ff ff pp
0.0000000000000000e+00 5.0000000000000000e+01 0.0000000000000000e+00