ITEM: TIMESTEP
1000
ITEM: NUMBER OF ATOMS
1
ITEM: BOX BOUNDS xy xz yz ff ff pp
0.0000000000000000e+00 5.0000000000000000e+01 0.0000000000000000e+00
0.0000000000000000e+00 5.0000000000000000e+01 0.0000000000000000e+00
-5.0000000000000000e+00 5.0000000000000000e+00 0.0000000000000000e+00
ITEM: ATOMS id fy
3 4.17119e-05
ITEM: TIMESTEP
1100
ITEM: NUMBER OF ATOMS
1
ITEM: BOX BOUNDS xy xz yz ff ff pp
0.0000000000000000e+00 5.0000000000000000e+01 0.0000000000000000e+00
0.0000000000000000e+00 5.0000000000000000e+01 0.0000000000000000e+00
-5.0000000000000000e+00 5.0000000000000000e+00 0.0000000000000000e+00
ITEM: ATOMS id fy
3 -25.4688
ITEM: TIMESTEP
1200
ITEM: NUMBER OF ATOMS
1
ITEM: BOX BOUNDS xy xz yz ff ff pp
0.0000000000000000e+00 5.0000000000000000e+01 0.0000000000000000e+00
0.0000000000000000e+00 5.0000000000000000e+01 0.0000000000000000e+00
-5.0000000000000000e+00 5.0000000000000000e+00 0.0000000000000000e+00
ITEM: ATOMS id fy
3 26.4456
ITEM: TIMESTEP
1300
ITEM: NUMBER OF ATOMS
1
ITEM: BOX BOUNDS xy xz yz ff ff pp
0.0000000000000000e+00 5.0000000000000000e+01 0.0000000000000000e+00
0.0000000000000000e+00 5.0000000000000000e+01 0.0000000000000000e+00
-5.0000000000000000e+00 5.0000000000000000e+00 0.0000000000000000e+00
ITEM: ATOMS id fy
3 15.7528
ITEM: TIMESTEP
1400
ITEM: NUMBER OF ATOMS
1
ITEM: BOX BOUNDS xy xz yz ff ff pp
0.0000000000000000e+00 5.0000000000000000e+01 0.0000000000000000e+00
0.0000000000000000e+00 5.0000000000000000e+01 0.0000000000000000e+00
-5.0000000000000000e+00 5.0000000000000000e+00 0.0000000000000000e+00
ITEM: ATOMS id fy
3 24.7524
ITEM: TIMESTEP
1500
ITEM: NUMBER OF ATOMS
1
ITEM: BOX BOUNDS xy xz yz ff ff pp
0.0000000000000000e+00 5.0000000000000000e+01 0.0000000000000000e+00
0.0000000000000000e+00 5.0000000000000000e+01 0.0000000000000000e+00
-5.0000000000000000e+00 5.0000000000000000e+00 0.0000000000000000e+00
ITEM: ATOMS id fy
3 1.08743
ITEM: TIMESTEP
1600
ITEM: NUMBER OF ATOMS
1
ITEM: BOX BOUNDS xy xz yz ff ff pp
0.0000000000000000e+00 5.0000000000000000e+01 0.0000000000000000e+00
0.0000000000000000e+00 5.0000000000000000e+01 0.0000000000000000e+00
-5.0000000000000000e+00 5.0000000000000000e+00 0.0000000000000000e+00
ITEM: ATOMS id fy
3 1.26775
ITEM: TIMESTEP
1700
ITEM: NUMBER OF ATOMS
1
ITEM: BOX BOUNDS xy xz yz ff ff pp
0.0000000000000000e+00 5.0000000000000000e+01 0.0000000000000000e+00
0.0000000000000000e+00 5.0000000000000000e+01 0.0000000000000000e+00
-5.0000000000000000e+00 5.0000000000000000e+00 0.0000000000000000e+00
ITEM: ATOMS id fy
3 -3.76026
ITEM: TIMESTEP
1800
ITEM: NUMBER OF ATOMS
1
ITEM: BOX BOUNDS xy xz yz ff ff pp
0.0000000000000000e+00 5.0000000000000000e+01 0.0000000000000000e+00
0.0000000000000000e+00 5.0000000000000000e+01 0.0000000000000000e+00
-5.0000000000000000e+00 5.0000000000000000e+00 0.0000000000000000e+00
ITEM: ATOMS id fy
3 -14.3242
ITEM: TIMESTEP
1900
ITEM: NUMBER OF ATOMS
1
ITEM: BOX BOUNDS xy xz yz ff ff pp
0.0000000000000000e+00 5.0000000000000000e+01 0.0000000000000000e+00
0.0000000000000000e+00 5.0000000000000000e+01 0.0000000000000000e+00
-5.0000000000000000e+00 5.0000000000000000e+00 0.0000000000000000e+00
ITEM: ATOMS id fy
3 7.18882
ITEM: TIMESTEP
2000
ITEM: NUMBER OF ATOMS
1
ITEM: BOX BOUNDS xy xz yz ff ff pp
0.0000000000000000e+00 5.0000000000000000e+01 0.0000000000000000e+00
0.0000000000000000e+00 5.0000000000000000e+01 0.0000000000000000e+00
-5.0000000000000000e+00 5.0000000000000000e+00 0.0000000000000000e+00
ITEM: ATOMS id fy
3 1.48777
ITEM: TIMESTEP
2100
ITEM: NUMBER OF ATOMS
1
ITEM: BOX BOUNDS xy xz yz ff ff pp
0.0000000000000000e+00 5.0000000000000000e+01 0.0000000000000000e+00
0.0000000000000000e+00 5.0000000000000000e+01 0.0000000000000000e+00
-5.0000000000000000e+00 5.0000000000000000e+00 0.0000000000000000e+00
ITEM: ATOMS id fy
3 5.79972
ITEM: TIMESTEP
2200
ITEM: NUMBER OF ATOMS
1
ITEM: BOX BOUNDS xy xz yz ff ff pp
0.0000000000000000e+00 5.0000000000000000e+01 0.0000000000000000e+00
0.0000000000000000e+00 5.0000000000000000e+01 0.0000000000000000e+00
-5.0000000000000000e+00 5.0000000000000000e+00 0.0000000000000000e+00
ITEM: ATOMS id fy
3 2.53353
ITEM: TIMESTEP
2300
ITEM: NUMBER OF ATOMS
1
ITEM: BOX BOUNDS xy xz yz ff ff pp
0.0000000000000000e+00 5.0000000000000000e+01 0.0000000000000000e+00
0.0000000000000000e+00 5.0000000000000000e+01 0.0000000000000000e+00
-5.0000000000000000e+00 5.0000000000000000e+00 0.0000000000000000e+00
ITEM: ATOMS id fy
3 1.60181
ITEM: TIMESTEP
2400
ITEM: NUMBER OF ATOMS
1
ITEM: BOX BOUNDS xy xz yz ff ff pp
0.0000000000000000e+00 5.0000000000000000e+01 0.0000000000000000e+00
0.0000000000000000e+00 5.0000000000000000e+01 0.0000000000000000e+00
-5.0000000000000000e+00 5.0000000000000000e+00 0.0000000000000000e+00
ITEM: ATOMS id fy
3 -1.83561
ITEM: TIMESTEP
2500
ITEM: NUMBER OF ATOMS
1
ITEM: BOX BOUNDS xy xz yz ff ff pp
0.0000000000000000e+00 5.0000000000000000e+01 0.0000000000000000e+00
0.0000000000000000e+00 5.0000000000000000e+01 0.0000000000000000e+00
-5.0000000000000000e+00 5.0000000000000000e+00 0.0000000000000000e+00
ITEM: ATOMS id fy
3 -7.69675
ITEM: TIMESTEP
2600
ITEM: NUMBER OF ATOMS
1
ITEM: BOX BOUNDS xy xz yz ff ff pp
0.0000000000000000e+00 5.0000000000000000e+01 0.0000000000000000e+00
0.0000000000000000e+00 5.0000000000000000e+01 0.0000000000000000e+00
-5.0000000000000000e+00 5.0000000000000000e+00 0.0000000000000000e+00
ITEM: ATOMS id fy
3 0.596154
ITEM: TIMESTEP
2700
ITEM: NUMBER OF ATOMS
1
ITEM: BOX BOUNDS xy xz yz ff ff pp
0.0000000000000000e+00 5.0000000000000000e+01 0.0000000000000000e+00
0.0000000000000000e+00 5.0000000000000000e+01 0.0000000000000000e+00
-5.0000000000000000e+00 5.0000000000000000e+00 0.0000000000000000e+00
ITEM: ATOMS id fy
3 -3.31479
ITEM: TIMESTEP
2800
ITEM: NUMBER OF ATOMS
1
ITEM: BOX BOUNDS xy xz yz ff ff pp
0.0000000000000000e+00 5.0000000000000000e+01 0.0000000000000000e+00
0.0000000000000000e+00 5.0000000000000000e+01 0.0000000000000000e+00
-5.0000000000000000e+00 5.0000000000000000e+00 0.0000000000000000e+00
ITEM: ATOMS id fy
3 0.934177
ITEM: TIMESTEP
2900
ITEM: NUMBER OF ATOMS
1
ITEM: BOX BOUNDS xy xz yz ff ff pp
0.0000000000000000e+00 5.0000000000000000e+01 0.0000000000000000e+00
0.0000000000000000e+00 5.0000000000000000e+01 0.0000000000000000e+00
-5.0000000000000000e+00 5.0000000000000000e+00 0.0000000000000000e+00
ITEM: ATOMS id fy
3 1.72112
ITEM: TIMESTEP
3000
ITEM: NUMBER OF ATOMS
1
ITEM: BOX BOUNDS xy xz yz ff ff pp
0.0000000000000000e+00 5.0000000000000000e+01 0.0000000000000000e+00
0.0000000000000000e+00 5.0000000000000000e+01 0.0000000000000000e+00
-5.0000000000000000e+00 5.0000000000000000e+00 0.0000000000000000e+00
ITEM: ATOMS id fy
3 1.98144
ITEM: TIMESTEP
3100
ITEM: NUMBER OF ATOMS
1
ITEM: BOX BOUNDS xy xz yz ff ff pp
0.0000000000000000e+00 5.0000000000000000e+01 0.0000000000000000e+00
0.0000000000000000e+00 5.0000000000000000e+01 0.0000000000000000e+00
-5.0000000000000000e+00 5.0000000000000000e+00 0.0000000000000000e+00
ITEM: ATOMS id fy
3 1.28149
ITEM: TIMESTEP
3200
ITEM: NUMBER OF ATOMS
1
ITEM: BOX BOUNDS xy xz yz ff ff pp
0.0000000000000000e+00 5.0000000000000000e+01 0.0000000000000000e+00
0.0000000000000000e+00 5.0000000000000000e+01 0.0000000000000000e+00
-5.0000000000000000e+00 5.0000000000000000e+00 0.0000000000000000e+00
ITEM: ATOMS id fy
3 0.0542798
ITEM: TIMESTEP
3300
ITEM: NUMBER OF ATOMS
1
ITEM: BOX BOUNDS xy xz yz ff ff pp
0.0000000000000000e+00 5.0000000000000000e+01 0.0000000000000000e+00
0.0000000000000000e+00 5.0000000000000000e+01 0.0000000000000000e+00
-5.0000000000000000e+00 5.0000000000000000e+00 0.0000000000000000e+00
ITEM: ATOMS id fy
3 -1.45065
ITEM: TIMESTEP
3400
ITEM: NUMBER OF ATOMS
1
ITEM: BOX BOUNDS xy xz yz ff ff pp
0.0000000000000000e+00 5.0000000000000000e+01 0.0000000000000000e+00
0.0000000000000000e+00 5.0000000000000000e+01 0.0000000000000000e+00
-5.0000000000000000e+00 5.0000000000000000e+00 0.0000000000000000e+00
ITEM: ATOMS id fy
3 -0.834767
ITEM: TIMESTEP
3500
ITEM: NUMBER OF ATOMS
1
ITEM: BOX BOUNDS xy xz yz ff ff pp
0.0000000000000000e+00 5.0000000000000000e+01 0.0000000000000000e+00
0.0000000000000000e+00 5.0000000000000000e+01 0.0000000000000000e+00
-5.0000000000000000e+00 5.0000000000000000e+00 0.0000000000000000e+00
ITEM: ATOMS id fy
3 0.0100735
ITEM: TIMESTEP
3600
ITEM: NUMBER OF ATOMS
1
ITEM: BOX BOUNDS xy xz yz ff ff pp
0.0000000000000000e+00 5.0000000000000000e+01 0.0000000000000000e+00
0.0000000000000000e+00 5.0000000000000000e+01 0.0000000000000000e+00
-5.0000000000000000e+00 5.0000000000000000e+00 0.0000000000000000e+00
ITEM: ATOMS id fy
3 0.755315
ITEM: TIMESTEP
3700
ITEM: NUMBER OF ATOMS
1
ITEM: BOX BOUNDS xy xz yz ff ff pp
0.0000000000000000e+00 5.0000000000000000e+01 0.0000000000000000e+00
0.0000000000000000e+00 5.0000000000000000e+01 0.0000000000000000e+00
-5.0000000000000000e+00 5.0000000000000000e+00 0.0000000000000000e+00
ITEM: ATOMS id fy
3 1.01094
ITEM: TIMESTEP
3800
ITEM: NUMBER OF ATOMS
1
ITEM: BOX BOUNDS xy xz yz ff ff pp
0.0000000000000000e+00 5.0000000000000000e+01 0.0000000000000000e+00
0.0000000000000000e+00 5.0000000000000000e+01 0.0000000000000000e+00
-5.0000000000000000e+00 5.0000000000000000e+00 0.0000000000000000e+00
ITEM: ATOMS id fy
3 0.461327
ITEM: TIMESTEP
3900
ITEM: NUMBER OF ATOMS
1
ITEM: BOX BOUNDS xy xz yz ff ff pp
0.0000000000000000e+00 5.0000000000000000e+01 0.0000000000000000e+00
0.0000000000000000e+00 5.0000000000000000e+01 0.0000000000000000e+00
-5.0000000000000000e+00 5.0000000000000000e+00 0.0000000000000000e+00
ITEM: ATOMS id fy
3 -0.239627
ITEM: TIMESTEP
4000
ITEM: NUMBER OF ATOMS
1
ITEM: BOX BOUNDS xy xz yz ff ff pp
0.0000000000000000e+00 5.0000000000000000e+01 0.0000000000000000e+00
0.0000000000000000e+00 5.0000000000000000e+01 0.0000000000000000e+00
-5.0000000000000000e+00 5.0000000000000000e+00 0.0000000000000000e+00
ITEM: ATOMS id fy
3 -0.636248
ITEM: TIMESTEP
4100
ITEM: NUMBER OF ATOMS
1
ITEM: BOX BOUNDS xy xz yz ff ff pp
0.0000000000000000e+00 5.0000000000000000e+01 0.0000000000000000e+00
0.0000000000000000e+00 5.0000000000000000e+01 0.0000000000000000e+00
-5.0000000000000000e+00 5.0000000000000000e+00 0.0000000000000000e+00
ITEM: ATOMS id fy
3 -0.658764
ITEM: TIMESTEP
4200
ITEM: NUMBER OF ATOMS
1
ITEM: BOX BOUNDS xy xz yz ff ff pp
0.0000000000000000e+00 5.0000000000000000e+01 0.0000000000000000e+00
0.0000000000000000e+00 5.0000000000000000e+01 0.0000000000000000e+00
-5.0000000000000000e+00 5.0000000000000000e+00 0.0000000000000000e+00
ITEM: ATOMS id fy
3 -0.310658
ITEM: TIMESTEP
4300
ITEM: NUMBER OF ATOMS
1
ITEM: BOX BOUNDS xy xz yz ff ff pp
0.0000000000000000e+00 5.0000000000000000e+01 0.0000000000000000e+00
0.0000000000000000e+00 5.0000000000000000e+01 0.0000000000000000e+00
-5.0000000000000000e+00 5.0000000000000000e+00 0.0000000000000000e+00
ITEM: ATOMS id fy
3 0.120741
ITEM: TIMESTEP
4400
ITEM: NUMBER OF ATOMS
1
ITEM: BOX BOUNDS xy xz yz ff ff pp
0.0000000000000000e+00 5.0000000000000000e+01 0.0000000000000000e+00
0.0000000000000000e+00 5.0000000000000000e+01 0.0000000000000000e+00
-5.0000000000000000e+00 5.0000000000000000e+00 0.0000000000000000e+00
ITEM: ATOMS id fy
3 0.316936
ITEM: TIMESTEP
4500
ITEM: NUMBER OF ATOMS
1
ITEM: BOX BOUNDS xy xz yz ff ff pp
0.0000000000000000e+00 5.0000000000000000e+01 0.0000000000000000e+00
0.0000000000000000e+00 5.0000000000000000e+01 0.0000000000000000e+00
-5.0000000000000000e+00 5.0000000000000000e+00 0.0000000000000000e+00
ITEM: ATOMS id fy
3 0.270705
ITEM: TIMESTEP
4600
ITEM: NUMBER OF ATOMS
1
ITEM: BOX BOUNDS xy xz yz ff ff pp
0.0000000000000000e+00 5.0000000000000000e+01 0.0000000000000000e+00
0.0000000000000000e+00 5.0000000000000000e+01 0.0000000000000000e+00
-5.0000000000000000e+00 5.0000000000000000e+00 0.0000000000000000e+00
ITEM: ATOMS id fy
3 0.0860304
ITEM: TIMESTEP
4700
ITEM: NUMBER OF ATOMS
1
ITEM: BOX BOUNDS xy xz yz ff ff pp
0.0000000000000000e+00 5.0000000000000000e+01 0.0000000000000000e+00
0.0000000000000000e+00 5.0000000000000000e+01 0.0000000000000000e+00
-5.0000000000000000e+00 5.0000000000000000e+00 0.0000000000000000e+00
ITEM: ATOMS id fy
3 -0.134078
ITEM: TIMESTEP
4800
ITEM: NUMBER OF ATOMS
1
ITEM: BOX BOUNDS xy xz yz ff ff pp
0.0000000000000000e+00 5.0000000000000000e+01 0.0000000000000000e+00
0.0000000000000000e+00 5.0000000000000000e+01 0.0000000000000000e+00
-5.0000000000000000e+00 5.0000000000000000e+00 0.0000000000000000e+00
ITEM: ATOMS id fy
3 -0.239694
ITEM: TIMESTEP
4900
ITEM: NUMBER OF ATOMS
1
ITEM: BOX BOUNDS xy xz yz ff ff pp
0.0000000000000000e+00 5.0000000000000000e+01 0.0000000000000000e+00
0.0000000000000000e+00 5.0000000000000000e+01 0.0000000000000000e+00
-5.0000000000000000e+00 5.0000000000000000e+00 0.0000000000000000e+00
ITEM: ATOMS id fy
3 -0.181378
ITEM: TIMESTEP
5000
ITEM: NUMBER OF ATOMS
1
ITEM: BOX BOUNDS xy xz yz ff ff pp
0.0000000000000000e+00 5.0000000000000000e+01 0.0000000000000000e+00
0.0000000000000000e+00 5.0000000000000000e+01 0.0000000000000000e+00
-5.0000000000000000e+00 5.0000000000000000e+00 0.0000000000000000e+00
ITEM: ATOMS id fy
3 -0.0247905
ITEM: TIMESTEP
5100
ITEM: NUMBER OF ATOMS
1
ITEM: BOX BOUNDS xy xz yz ff ff pp
0.0000000000000000e+00 5.0000000000000000e+01 0.0000000000000000e+00
0.0000000000000000e+00 5.0000000000000000e+01 0.0000000000000000e+00
-5.0000000000000000e+00 5.0000000000000000e+00 0.0000000000000000e+00
ITEM: ATOMS id fy
3 0.530426
ITEM: TIMESTEP
5200
ITEM: NUMBER OF ATOMS
1
ITEM: BOX BOUNDS xy xz yz ff ff pp
0.0000000000000000e+00 5.0000000000000000e+01 0.0000000000000000e+00
0.0000000000000000e+00 5.0000000000000000e+01 0.0000000000000000e+00
-5.0000000000000000e+00 5.0000000000000000e+00 0.0000000000000000e+00
ITEM: ATOMS id fy
3 -0.0957185
ITEM: TIMESTEP
5300
ITEM: NUMBER OF ATOMS
1
ITEM: BOX BOUNDS xy xz yz ff ff pp
0.0000000000000000e+00 5.0000000000000000e+01 0.0000000000000000e+00
0.0000000000000000e+00 5.0000000000000000e+01 0.0000000000000000e+00
-5.0000000000000000e+00 5.0000000000000000e+00 0.0000000000000000e+00
ITEM: ATOMS id fy
3 0.212034
ITEM: TIMESTEP
5400
ITEM: NUMBER OF ATOMS
1
ITEM: BOX BOUNDS xy xz yz ff ff pp
0.0000000000000000e+00 5.0000000000000000e+01 0.0000000000000000e+00
0.0000000000000000e+00 5.0000000000000000e+01 0.0000000000000000e+00
-5.0000000000000000e+00 5.0000000000000000e+00 0.0000000000000000e+00
ITEM: ATOMS id fy
3 0.155982
ITEM: TIMESTEP
5500
ITEM: NUMBER OF ATOMS
1
ITEM: BOX BOUNDS xy xz yz ff ff pp
0.0000000000000000e+00 5.0000000000000000e+01 0.0000000000000000e+00
0.0000000000000000e+00 5.0000000000000000e+01 0.0000000000000000e+00
-5.0000000000000000e+00 5.0000000000000000e+00 0.0000000000000000e+00
ITEM: ATOMS id fy
3 -0.0563963
ITEM: TIMESTEP
5600
ITEM: NUMBER OF ATOMS
1
ITEM: BOX BOUNDS xy xz yz ff ff pp
0.0000000000000000e+00 5.0000000000000000e+01 0.0000000000000000e+00
0.0000000000000000e+00 5.0000000000000000e+01 0.0000000000000000e+00
-5.0000000000000000e+00 5.0000000000000000e+00 0.0000000000000000e+00
ITEM: ATOMS id fy
3 -0.0767585
ITEM: TIMESTEP
5700
ITEM: NUMBER OF ATOMS
1
ITEM: BOX BOUNDS xy xz yz ff ff pp
0.0000000000000000e+00 5.0000000000000000e+01 0.0000000000000000e+00
0.0000000000000000e+00 5.0000000000000000e+01 0.0000000000000000e+00
-5.0000000000000000e+00 5.0000000000000000e+00 0.0000000000000000e+00
ITEM: ATOMS id fy
3 -0.0932092
ITEM: TIMESTEP
5800
ITEM: NUMBER OF ATOMS
1
ITEM: BOX BOUNDS xy xz yz ff ff pp
0.0000000000000000e+00 5.0000000000000000e+01 0.0000000000000000e+00
0.0000000000000000e+00 5.0000000000000000e+01 0.0000000000000000e+00
-5.0000000000000000e+00 5.0000000000000000e+00 0.0000000000000000e+00
ITEM: ATOMS id fy
3 -0.0485963
ITEM: TIMESTEP
5900
ITEM: NUMBER OF ATOMS
1
ITEM: BOX BOUNDS xy xz yz ff ff pp
0.0000000000000000e+00 5.0000000000000000e+01 0.0000000000000000e+00
0.0000000000000000e+00 5.0000000000000000e+01 0.0000000000000000e+00
-5.0000000000000000e+00 5.0000000000000000e+00 0.0000000000000000e+00
ITEM: ATOMS id fy
3 0.0622793
ITEM: TIMESTEP
6000
ITEM: NUMBER OF ATOMS
1
ITEM: BOX BOUNDS xy xz yz ff ff pp
0.0000000000000000e+00 5.0000000000000000e+01 0.0000000000000000e+00
0.0000000000000000e+00 5.0000000000000000e+01 0.0000000000000000e+00
-5.0000000000000000e+00 5.0000000000000000e+00 0.0000000000000000e+00
ITEM: ATOMS id fy
3 -0.0149478
ITEM: TIMESTEP
6100
ITEM: NUMBER OF ATOMS
1
ITEM: BOX BOUNDS xy xz yz ff ff pp
0.0000000000000000e+00 5.0000000000000000e+01 0.0000000000000000e+00
0.0000000000000000e+00 5.0000000000000000e+01 0.0000000000000000e+00
-5.0000000000000000e+00 5.0000000000000000e+00 0.0000000000000000e+00
ITEM: ATOMS id fy
3 -0.0361509
ITEM: TIMESTEP
6200
ITEM: NUMBER OF ATOMS
1
ITEM: BOX BOUNDS xy xz yz ff ff pp
0.0000000000000000e+00 5.0000000000000000e+01 0.0000000000000000e+00
0.0000000000000000e+00 5.0000000000000000e+01 0.0000000000000000e+00
-5.0000000000000000e+00 5.0000000000000000e+00 0.0000000000000000e+00
ITEM: ATOMS id fy
3 -0.0492791
ITEM: TIMESTEP
6300
ITEM: NUMBER OF ATOMS
1
ITEM: BOX BOUNDS xy xz yz ff ff pp
0.0000000000000000e+00 5.0000000000000000e+01 0.0000000000000000e+00
0.0000000000000000e+00 5.0000000000000000e+01 0.0000000000000000e+00
-5.0000000000000000e+00 5.0000000000000000e+00 0.0000000000000000e+00
ITEM: ATOMS id fy
3 -0.0895243
ITEM: TIMESTEP
6400
ITEM: NUMBER OF ATOMS
1
ITEM: BOX BOUNDS xy xz yz ff ff pp
0.0000000000000000e+00 5.0000000000000000e+01 0.0000000000000000e+00
0.0000000000000000e+00 5.0000000000000000e+01 0.0000000000000000e+00
-5.0000000000000000e+00 5.0000000000000000e+00 0.0000000000000000e+00
ITEM: ATOMS id fy
3 -0.105085
ITEM: TIMESTEP
6500
ITEM: NUMBER OF ATOMS
1
ITEM: BOX BOUNDS xy xz yz ff ff pp
0.0000000000000000e+00 5.0000000000000000e+01 0.0000000000000000e+00
0.0000000000000000e+00 5.0000000000000000e+01 0.0000000000000000e+00
-5.0000000000000000e+00 5.0000000000000000e+00 0.0000000000000000e+00
ITEM: ATOMS id fy
3 -0.057699
ITEM: TIMESTEP
6600
ITEM: NUMBER OF ATOMS
1
ITEM: BOX BOUNDS xy xz yz ff ff pp
0.0000000000000000e+00 5.0000000000000000e+01 0.0000000000000000e+00
0.0000000000000000e+00 5.0000000000000000e+01 0.0000000000000000e+00
-5.0000000000000000e+00 5.0000000000000000e+00 0.0000000000000000e+00
ITEM: ATOMS id fy
3 -0.0221831
ITEM: TIMESTEP
6700
ITEM: NUMBER OF ATOMS
1
ITEM: BOX BOUNDS xy xz yz ff ff pp
0.0000000000000000e+00 5.0000000000000000e+01 0.0000000000000000e+00
0.0000000000000000e+00 5.0000000000000000e+01 0.0000000000000000e+00
-5.0000000000000000e+00 5.0000000000000000e+00 0.0000000000000000e+00
ITEM: ATOMS id fy
3 0.444512
ITEM: TIMESTEP
6800
ITEM: NUMBER OF ATOMS
1
ITEM: BOX BOUNDS xy xz yz ff ff pp
0.0000000000000000e+00 5.0000000000000000e+01 0.0000000000000000e+00
0.0000000000000000e+00 5.0000000000000000e+01 0.0000000000000000e+00
-5.0000000000000000e+00 5.0000000000000000e+00 0.0000000000000000e+00
ITEM: ATOMS id fy
3 -0.144226
ITEM: TIMESTEP
6900
ITEM: NUMBER OF ATOMS
1
ITEM: BOX BOUNDS xy xz yz ff ff pp
0.0000000000000000e+00 5.0000000000000000e+01 0.0000000000000000e+00
0.0000000000000000e+00 5.0000000000000000e+01 0.0000000000000000e+00
-5.0000000000000000e+00 5.0000000000000000e+00 0.0000000000000000e+00
ITEM: ATOMS id fy
3 -0.0825326
ITEM: TIMESTEP
7000
ITEM: NUMBER OF ATOMS
1
ITEM: BOX BOUNDS xy xz yz ff ff pp
0.0000000000000000e+00 5.0000000000000000e+01 0.0000000000000000e+00
0.0000000000000000e+00 5.0000000000000000e+01 0.0000000000000000e+00
-5.0000000000000000e+00 5.0000000000000000e+00 0.0000000000000000e+00
ITEM: ATOMS id fy
3 0.0565553
ITEM: TIMESTEP
7100
ITEM: NUMBER OF ATOMS
1
ITEM: BOX BOUNDS xy xz yz ff ff pp
0.0000000000000000e+00 5.0000000000000000e+01 0.0000000000000000e+00
0.0000000000000000e+00 5.0000000000000000e+01 0.0000000000000000e+00
-5.0000000000000000e+00 5.0000000000000000e+00 0.0000000000000000e+00
ITEM: ATOMS id fy
3 0.0179079
ITEM: TIMESTEP
7200
ITEM: NUMBER OF ATOMS
1
ITEM: BOX BOUNDS xy xz yz ff ff pp
0.0000000000000000e+00 5.0000000000000000e+01 0.0000000000000000e+00
0.0000000000000000e+00 5.0000000000000000e+01 0.0000000000000000e+00
-5.0000000000000000e+00 5.0000000000000000e+00 0.0000000000000000e+00
ITEM: ATOMS id fy
3 0.00964448
ITEM: TIMESTEP
7300
ITEM: NUMBER OF ATOMS
1
ITEM: BOX BOUNDS xy xz yz ff ff pp
0.0000000000000000e+00 5.0000000000000000e+01 0.0000000000000000e+00
0.0000000000000000e+00 5.0000000000000000e+01 0.0000000000000000e+00
-5.0000000000000000e+00 5.0000000000000000e+00 0.0000000000000000e+00
ITEM: ATOMS id fy
3 -0.0264031
ITEM: TIMESTEP
7400
ITEM: NUMBER OF ATOMS
1
ITEM: BOX BOUNDS xy xz yz ff ff pp
0.0000000000000000e+00 5.0000000000000000e+01 0.0000000000000000e+00
0.0000000000000000e+00 5.0000000000000000e+01 0.0000000000000000e+00
-5.0000000000000000e+00 5.0000000000000000e+00 0.0000000000000000e+00
ITEM: ATOMS id fy
3 0.0200091
ITEM: TIMESTEP
7500
ITEM: NUMBER OF ATOMS
1
ITEM: BOX BOUNDS xy xz yz ff ff pp
0.0000000000000000e+00 5.0000000000000000e+01 0.0000000000000000e+00
0.0000000000000000e+00 5.0000000000000000e+01 0.0000000000000000e+00
-5.0000000000000000e+00 5.0000000000000000e+00 0.0000000000000000e+00
ITEM: ATOMS id fy
3 0.0260799
ITEM: TIMESTEP
7600
ITEM: NUMBER OF ATOMS
1
ITEM: BOX BOUNDS xy xz yz ff ff pp
0.0000000000000000e+00 5.0000000000000000e+01 0.0000000000000000e+00
0.0000000000000000e+00 5.0000000000000000e+01 0.0000000000000000e+00
-5.0000000000000000e+00 5.0000000000000000e+00 0.0000000000000000e+00
ITEM: ATOMS id fy
3 0.0123073
ITEM: TIMESTEP
7700
ITEM: NUMBER OF ATOMS
1
ITEM: BOX BOUNDS xy xz yz ff ff pp
0.0000000000000000e+00 5.0000000000000000e+01 0.0000000000000000e+00
0.0000000000000000e+00 5.0000000000000000e+01 0.0000000000000000e+00
-5.0000000000000000e+00 5.0000000000000000e+00 0.0000000000000000e+00
ITEM: ATOMS id fy
3 0.00741254
ITEM: TIMESTEP
7800
ITEM: NUMBER OF ATOMS
1
ITEM: BOX BOUNDS xy xz yz ff ff pp
0.0000000000000000e+00 5.0000000000000000e+01 0.0000000000000000e+00
0.0000000000000000e+00 5.0000000000000000e+01 0.0000000000000000e+00
-5.0000000000000000e+00 5.0000000000000000e+00 0.0000000000000000e+00
ITEM: ATOMS id fy
3 -0.00950577
ITEM: TIMESTEP
7900
ITEM: NUMBER OF ATOMS
1
ITEM: BOX BOUNDS xy xz yz ff ff pp
0.0000000000000000e+00 5.0000000000000000e+01 0.0000000000000000e+00
0.0000000000000000e+00 5.0000000000000000e+01 0.0000000000000000e+00
-5.0000000000000000e+00 5.0000000000000000e+00 0.0000000000000000e+00
ITEM: ATOMS id fy
3 -0.0168024
ITEM: TIMESTEP
8000
ITEM: NUMBER OF ATOMS
1
ITEM: BOX BOUNDS xy xz yz ff ff pp
0.0000000000000000e+00 5.0000000000000000e+01 0.0000000000000000e+00
0.0000000000000000e+00 5.0000000000000000e+01 0.0000000000000000e+00
-5.0000000000000000e+00 5.0000000000000000e+00 0.0000000000000000e+00
ITEM: ATOMS id fy
3 -0.0168539
ITEM: TIMESTEP
8100
ITEM: NUMBER OF ATOMS
1
ITEM: BOX BOUNDS xy xz yz ff ff pp
0.0000000000000000e+00 5.0000000000000000e+01 0.0000000000000000e+00
0.0000000000000000e+00 5.0000000000000000e+01 0.0000000000000000e+00
-5.0000000000000000e+00 5.0000000000000000e+00 0.0000000000000000e+00
ITEM: ATOMS id fy
3 -0.0168139
ITEM: TIMESTEP
8200
ITEM: NUMBER OF ATOMS
1
ITEM: BOX BOUNDS xy xz yz ff ff pp
0.0000000000000000e+00 5.0000000000000000e+01 0.0000000000000000e+00
0.0000000000000000e+00 5.0000000000000000e+01 0.0000000000000000e+00
-5.0000000000000000e+00 5.0000000000000000e+00 0.0000000000000000e+00
ITEM: ATOMS id fy
3 -0.0139222
ITEM: TIMESTEP
8300
ITEM: NUMBER OF ATOMS
1
ITEM: BOX BOUNDS xy xz yz ff ff pp
0.0000000000000000e+00 5.0000000000000000e+01 0.0000000000000000e+00
0.0000000000000000e+00 5.0000000000000000e+01 0.0000000000000000e+00
-5.0000000000000000e+00 5.0000000000000000e+00 0.0000000000000000e+00
ITEM: ATOMS id fy
3 -0.0115772
ITEM: TIMESTEP
8400
ITEM: NUMBER OF ATOMS
1
ITEM: BOX BOUNDS xy xz yz ff ff pp
0.0000000000000000e+00 5.0000000000000000e+01 0.0000000000000000e+00
0.0000000000000000e+00 5.0000000000000000e+01 0.0000000000000000e+00
-5.0000000000000000e+00 5.0000000000000000e+00 0.0000000000000000e+00
ITEM: ATOMS id fy
3 -0.0105001
ITEM: TIMESTEP
8500
ITEM: NUMBER OF ATOMS
1
ITEM: BOX BOUNDS xy xz yz ff ff pp
0.0000000000000000e+00 5.0000000000000000e+01 0.0000000000000000e+00
0.0000000000000000e+00 5.0000000000000000e+01 0.0000000000000000e+00
-5.0000000000000000e+00 5.0000000000000000e+00 0.0000000000000000e+00
ITEM: ATOMS id fy
3 -0.00955402
ITEM: TIMESTEP
8600
ITEM: NUMBER OF ATOMS
1
ITEM: BOX BOUNDS xy xz yz ff ff pp
0.0000000000000000e+00 5.0000000000000000e+01 0.0000000000000000e+00
0.0000000000000000e+00 5.0000000000000000e+01 0.0000000000000000e+00
-5.0000000000000000e+00 5.0000000000000000e+00 0.0000000000000000e+00
ITEM: ATOMS id fy
3 -0.00892235
ITEM: TIMESTEP
8700
ITEM: NUMBER OF ATOMS
1
ITEM: BOX BOUNDS xy xz yz ff ff pp
0.0000000000000000e+00 5.0000000000000000e+01 0.0000000000000000e+00
0.0000000000000000e+00 5.0000000000000000e+01 0.0000000000000000e+00
-5.0000000000000000e+00 5.0000000000000000e+00 0.0000000000000000e+00
ITEM: ATOMS id fy
3 -0.00722079
ITEM: TIMESTEP
8800
ITEM: NUMBER OF ATOMS
1
ITEM: BOX BOUNDS xy xz yz ff ff pp
0.0000000000000000e+00 5.0000000000000000e+01 0.0000000000000000e+00
0.0000000000000000e+00 5.0000000000000000e+01 0.0000000000000000e+00
-5.0000000000000000e+00 5.0000000000000000e+00 0.0000000000000000e+00
ITEM: ATOMS id fy
3 -0.00366473
ITEM: TIMESTEP
8900
ITEM: NUMBER OF ATOMS
1
ITEM: BOX BOUNDS xy xz yz ff ff pp
0.0000000000000000e+00 5.0000000000000000e+01 0.0000000000000000e+00
0.0000000000000000e+00 5.0000000000000000e+01 0.0000000000000000e+00
-5.0000000000000000e+00 5.0000000000000000e+00 0.0000000000000000e+00
ITEM: ATOMS id fy
3 0.00108711
ITEM: TIMESTEP
9000
ITEM: NUMBER OF ATOMS
1
ITEM: BOX BOUNDS xy xz yz ff ff pp
0.0000000000000000e+00 5.0000000000000000e+01 0.0000000000000000e+00
0.0000000000000000e+00 5.0000000000000000e+01 0.0000000000000000e+00
-5.0000000000000000e+00 5.0000000000000000e+00 0.0000000000000000e+00
ITEM: ATOMS id fy
3 0.00597079
ITEM: TIMESTEP
9100
ITEM: NUMBER OF ATOMS
1
ITEM: BOX BOUNDS xy xz yz ff ff pp
0.0000000000000000e+00 5.0000000000000000e+01 0.0000000000000000e+00
0.0000000000000000e+00 5.0000000000000000e+01 0.0000000000000000e+00
-5.0000000000000000e+00 5.0000000000000000e+00 0.0000000000000000e+00
ITEM: ATOMS id fy
3 0.00976108
ITEM: TIMESTEP
9200
ITEM: NUMBER OF ATOMS
1
ITEM: BOX BOUNDS xy xz yz ff ff pp
0.0000000000000000e+00 5.0000000000000000e+01 0.0000000000000000e+00
0.0000000000000000e+00 5.0000000000000000e+01 0.0000000000000000e+00
-5.0000000000000000e+00 5.0000000000000000e+00 0.0000000000000000e+00
ITEM: ATOMS id fy
3 0.0118541
ITEM: TIMESTEP
9300
ITEM: NUMBER OF ATOMS
1
ITEM: BOX BOUNDS xy xz yz ff ff pp
0.0000000000000000e+00 5.0000000000000000e+01 0.0000000000000000e+00
0.0000000000000000e+00 5.0000000000000000e+01 0.0000000000000000e+00
-5.0000000000000000e+00 5.0000000000000000e+00 0.0000000000000000e+00
ITEM: ATOMS id fy
3 0.0124085
ITEM: TIMESTEP
9400
ITEM: NUMBER OF ATOMS
1
ITEM: BOX BOUNDS xy xz yz ff ff pp
0.0000000000000000e+00 5.0000000000000000e+01 0.0000000000000000e+00
0.0000000000000000e+00 5.0000000000000000e+01 0.0000000000000000e+00
-5.0000000000000000e+00 5.0000000000000000e+00 0.0000000000000000e+00
ITEM: ATOMS id fy
3 0.0118792
ITEM: TIMESTEP
9500
ITEM: NUMBER OF ATOMS
1
ITEM: BOX BOUNDS xy xz yz ff ff pp
0.0000000000000000e+00 5.0000000000000000e+01 0.0000000000000000e+00
0.0000000000000000e+00 5.0000000000000000e+01 0.0000000000000000e+00
-5.0000000000000000e+00 5.0000000000000000e+00 0.0000000000000000e+00
ITEM: ATOMS id fy
3 0.0107796
ITEM: TIMESTEP
9600
ITEM: NUMBER OF ATOMS
1
ITEM: BOX BOUNDS xy xz yz ff ff pp
0.0000000000000000e+00 5.0000000000000000e+01 0.0000000000000000e+00
0.0000000000000000e+00 5.0000000000000000e+01 0.0000000000000000e+00
-5.0000000000000000e+00 5.0000000000000000e+00 0.0000000000000000e+00
ITEM: ATOMS id fy
3 -0.0936972
ITEM: TIMESTEP
9700
ITEM: NUMBER OF ATOMS
1
ITEM: BOX BOUNDS xy xz yz ff ff pp
0.0000000000000000e+00 5.0000000000000000e+01 0.0000000000000000e+00
0.0000000000000000e+00 5.0000000000000000e+01 0.0000000000000000e+00
-5.0000000000000000e+00 5.0000000000000000e+00 0.0000000000000000e+00
ITEM: ATOMS id fy
3 0.0668213
ITEM: TIMESTEP
9800
ITEM: NUMBER OF ATOMS
1
ITEM: BOX BOUNDS xy xz yz ff ff pp
0.0000000000000000e+00 5.0000000000000000e+01 0.0000000000000000e+00
0.0000000000000000e+00 5.0000000000000000e+01 0.0000000000000000e+00
-5.0000000000000000e+00 5.0000000000000000e+00 0.0000000000000000e+00
ITEM: ATOMS id fy
3 0.0211919
ITEM: TIMESTEP
9900
ITEM: NUMBER OF ATOMS
1
ITEM: BOX BOUNDS xy xz yz ff ff pp
0.0000000000000000e+00 5.0000000000000000e+01 0.0000000000000000e+00
0.0000000000000000e+00 5.0000000000000000e+01 0.0000000000000000e+00
-5.0000000000000000e+00 5.0000000000000000e+00 0.0000000000000000e+00
ITEM: ATOMS id fy
3 -0.0330873
ITEM: TIMESTEP
10000
ITEM: NUMBER OF ATOMS
1
ITEM: BOX BOUNDS xy xz yz ff ff pp
0.0000000000000000e+00 5.0000000000000000e+01 0.0000000000000000e+00
0.0000000000000000e+00 5.0000000000000000e+01 0.0000000000000000e+00
-5.0000000000000000e+00 5.0000000000000000e+00 0.0000000000000000e+00
ITEM: ATOMS id fy
3 -0.0473288
ITEM: TIMESTEP
10100
ITEM: NUMBER OF ATOMS
1
ITEM: BOX BOUNDS xy xz yz ff ff pp
0.0000000000000000e+00 5.0000000000000000e+01 0.0000000000000000e+00
0.0000000000000000e+00 5.0000000000000000e+01 0.0000000000000000e+00
-5.0000000000000000e+00 5.0000000000000000e+00 0.0000000000000000e+00
ITEM: ATOMS id fy
3 0.0611036
ITEM: TIMESTEP
10200
ITEM: NUMBER OF ATOMS
1
ITEM: BOX BOUNDS xy xz yz ff ff pp
0.0000000000000000e+00 5.0000000000000000e+01 0.0000000000000000e+00
0.0000000000000000e+00 5.0000000000000000e+01 0.0000000000000000e+00
-5.0000000000000000e+00 5.0000000000000000e+00 0.0000000000000000e+00
ITEM: ATOMS id fy
3 0.0161345
ITEM: TIMESTEP
10300
ITEM: NUMBER OF ATOMS
1
ITEM: BOX BOUNDS xy xz yz ff ff pp
0.0000000000000000e+00 5.0000000000000000e+01 0.0000000000000000e+00
0.0000000000000000e+00 5.0000000000000000e+01 0.0000000000000000e+00
-5.0000000000000000e+00 5.0000000000000000e+00 0.0000000000000000e+00
ITEM: ATOMS id fy
3 -0.0894468
ITEM: TIMESTEP
10400
ITEM: NUMBER OF ATOMS
1
ITEM: BOX BOUNDS xy xz yz ff ff pp
0.0000000000000000e+00 5.0000000000000000e+01 0.0000000000000000e+00