ITEM: TIMESTEP
1000
ITEM: NUMBER OF ATOMS
1
ITEM: BOX BOUNDS xy xz yz ff ff pp
0.0000000000000000e+00 5.0000000000000000e+01 0.0000000000000000e+00
0.0000000000000000e+00 5.0000000000000000e+01 0.0000000000000000e+00
-5.0000000000000000e+00 5.0000000000000000e+00 0.0000000000000000e+00
ITEM: ATOMS id fy
3 6.18236e-05
ITEM: TIMESTEP
1100
ITEM: NUMBER OF ATOMS
1
ITEM: BOX BOUNDS xy xz yz ff ff pp
0.0000000000000000e+00 5.0000000000000000e+01 0.0000000000000000e+00
0.0000000000000000e+00 5.0000000000000000e+01 0.0000000000000000e+00
-5.0000000000000000e+00 5.0000000000000000e+00 0.0000000000000000e+00
ITEM: ATOMS id fy
3 -2.06675
ITEM: TIMESTEP
1200
ITEM: NUMBER OF ATOMS
1
ITEM: BOX BOUNDS xy xz yz ff ff pp
0.0000000000000000e+00 5.0000000000000000e+01 0.0000000000000000e+00
0.0000000000000000e+00 5.0000000000000000e+01 0.0000000000000000e+00
-5.0000000000000000e+00 5.0000000000000000e+00 0.0000000000000000e+00
ITEM: ATOMS id fy
3 19.2987
ITEM: TIMESTEP
1300
ITEM: NUMBER OF ATOMS
1
ITEM: BOX BOUNDS xy xz yz ff ff pp
0.0000000000000000e+00 5.0000000000000000e+01 0.0000000000000000e+00
0.0000000000000000e+00 5.0000000000000000e+01 0.0000000000000000e+00
-5.0000000000000000e+00 5.0000000000000000e+00 0.0000000000000000e+00
ITEM: ATOMS id fy
3 21.2433
ITEM: TIMESTEP
1400
ITEM: NUMBER OF ATOMS
1
ITEM: BOX BOUNDS xy xz yz ff ff pp
0.0000000000000000e+00 5.0000000000000000e+01 0.0000000000000000e+00
0.0000000000000000e+00 5.0000000000000000e+01 0.0000000000000000e+00
-5.0000000000000000e+00 5.0000000000000000e+00 0.0000000000000000e+00
ITEM: ATOMS id fy
3 12.9281
ITEM: TIMESTEP
1500
ITEM: NUMBER OF ATOMS
1
ITEM: BOX BOUNDS xy xz yz ff ff pp
0.0000000000000000e+00 5.0000000000000000e+01 0.0000000000000000e+00
0.0000000000000000e+00 5.0000000000000000e+01 0.0000000000000000e+00
-5.0000000000000000e+00 5.0000000000000000e+00 0.0000000000000000e+00
ITEM: ATOMS id fy
3 7.92076
ITEM: TIMESTEP
1600
ITEM: NUMBER OF ATOMS
1
ITEM: BOX BOUNDS xy xz yz ff ff pp
0.0000000000000000e+00 5.0000000000000000e+01 0.0000000000000000e+00
0.0000000000000000e+00 5.0000000000000000e+01 0.0000000000000000e+00
-5.0000000000000000e+00 5.0000000000000000e+00 0.0000000000000000e+00
ITEM: ATOMS id fy
3 -16.123
ITEM: TIMESTEP
1700
ITEM: NUMBER OF ATOMS
1
ITEM: BOX BOUNDS xy xz yz ff ff pp
0.0000000000000000e+00 5.0000000000000000e+01 0.0000000000000000e+00
0.0000000000000000e+00 5.0000000000000000e+01 0.0000000000000000e+00
-5.0000000000000000e+00 5.0000000000000000e+00 0.0000000000000000e+00
ITEM: ATOMS id fy
3 -3.03393
ITEM: TIMESTEP
1800
ITEM: NUMBER OF ATOMS
1
ITEM: BOX BOUNDS xy xz yz ff ff pp
0.0000000000000000e+00 5.0000000000000000e+01 0.0000000000000000e+00
0.0000000000000000e+00 5.0000000000000000e+01 0.0000000000000000e+00
-5.0000000000000000e+00 5.0000000000000000e+00 0.0000000000000000e+00
ITEM: ATOMS id fy
3 -1.13663
ITEM: TIMESTEP
1900
ITEM: NUMBER OF ATOMS
1
ITEM: BOX BOUNDS xy xz yz ff ff pp
0.0000000000000000e+00 5.0000000000000000e+01 0.0000000000000000e+00
0.0000000000000000e+00 5.0000000000000000e+01 0.0000000000000000e+00
-5.0000000000000000e+00 5.0000000000000000e+00 0.0000000000000000e+00
ITEM: ATOMS id fy
3 -18.4741
ITEM: TIMESTEP
2000
ITEM: NUMBER OF ATOMS
1
ITEM: BOX BOUNDS xy xz yz ff ff pp
0.0000000000000000e+00 5.0000000000000000e+01 0.0000000000000000e+00
0.0000000000000000e+00 5.0000000000000000e+01 0.0000000000000000e+00
-5.0000000000000000e+00 5.0000000000000000e+00 0.0000000000000000e+00
ITEM: ATOMS id fy
3 -12.9178
ITEM: TIMESTEP
2100
ITEM: NUMBER OF ATOMS
1
ITEM: BOX BOUNDS xy xz yz ff ff pp
0.0000000000000000e+00 5.0000000000000000e+01 0.0000000000000000e+00
0.0000000000000000e+00 5.0000000000000000e+01 0.0000000000000000e+00
-5.0000000000000000e+00 5.0000000000000000e+00 0.0000000000000000e+00
ITEM: ATOMS id fy
3 16.0638
ITEM: TIMESTEP
2200
ITEM: NUMBER OF ATOMS
1
ITEM: BOX BOUNDS xy xz yz ff ff pp
0.0000000000000000e+00 5.0000000000000000e+01 0.0000000000000000e+00
0.0000000000000000e+00 5.0000000000000000e+01 0.0000000000000000e+00
-5.0000000000000000e+00 5.0000000000000000e+00 0.0000000000000000e+00
ITEM: ATOMS id fy
3 6.8204
ITEM: TIMESTEP
2300
ITEM: NUMBER OF ATOMS
1
ITEM: BOX BOUNDS xy xz yz ff ff pp
0.0000000000000000e+00 5.0000000000000000e+01 0.0000000000000000e+00
0.0000000000000000e+00 5.0000000000000000e+01 0.0000000000000000e+00
-5.0000000000000000e+00 5.0000000000000000e+00 0.0000000000000000e+00
ITEM: ATOMS id fy
3 -7.35533
ITEM: TIMESTEP
2400
ITEM: NUMBER OF ATOMS
1
ITEM: BOX BOUNDS xy xz yz ff ff pp
0.0000000000000000e+00 5.0000000000000000e+01 0.0000000000000000e+00
0.0000000000000000e+00 5.0000000000000000e+01 0.0000000000000000e+00
-5.0000000000000000e+00 5.0000000000000000e+00 0.0000000000000000e+00
ITEM: ATOMS id fy
3 9.8534
ITEM: TIMESTEP
2500
ITEM: NUMBER OF ATOMS
1
ITEM: BOX BOUNDS xy xz yz ff ff pp
0.0000000000000000e+00 5.0000000000000000e+01 0.0000000000000000e+00
0.0000000000000000e+00 5.0000000000000000e+01 0.0000000000000000e+00
-5.0000000000000000e+00 5.0000000000000000e+00 0.0000000000000000e+00
ITEM: ATOMS id fy
3 0.908642
ITEM: TIMESTEP
2600
ITEM: NUMBER OF ATOMS
1
ITEM: BOX BOUNDS xy xz yz ff ff pp
0.0000000000000000e+00 5.0000000000000000e+01 0.0000000000000000e+00
0.0000000000000000e+00 5.0000000000000000e+01 0.0000000000000000e+00
-5.0000000000000000e+00 5.0000000000000000e+00 0.0000000000000000e+00
ITEM: ATOMS id fy
3 0.650612
ITEM: TIMESTEP
2700
ITEM: NUMBER OF ATOMS
1
ITEM: BOX BOUNDS xy xz yz ff ff pp
0.0000000000000000e+00 5.0000000000000000e+01 0.0000000000000000e+00
0.0000000000000000e+00 5.0000000000000000e+01 0.0000000000000000e+00
-5.0000000000000000e+00 5.0000000000000000e+00 0.0000000000000000e+00
ITEM: ATOMS id fy
3 0.0191598
ITEM: TIMESTEP
2800
ITEM: NUMBER OF ATOMS
1
ITEM: BOX BOUNDS xy xz yz ff ff pp
0.0000000000000000e+00 5.0000000000000000e+01 0.0000000000000000e+00
0.0000000000000000e+00 5.0000000000000000e+01 0.0000000000000000e+00
-5.0000000000000000e+00 5.0000000000000000e+00 0.0000000000000000e+00
ITEM: ATOMS id fy
3 0.630605
ITEM: TIMESTEP
2900
ITEM: NUMBER OF ATOMS
1
ITEM: BOX BOUNDS xy xz yz ff ff pp
0.0000000000000000e+00 5.0000000000000000e+01 0.0000000000000000e+00
0.0000000000000000e+00 5.0000000000000000e+01 0.0000000000000000e+00
-5.0000000000000000e+00 5.0000000000000000e+00 0.0000000000000000e+00
ITEM: ATOMS id fy
3 4.19641
ITEM: TIMESTEP
3000
ITEM: NUMBER OF ATOMS
1
ITEM: BOX BOUNDS xy xz yz ff ff pp
0.0000000000000000e+00 5.0000000000000000e+01 0.0000000000000000e+00
0.0000000000000000e+00 5.0000000000000000e+01 0.0000000000000000e+00
-5.0000000000000000e+00 5.0000000000000000e+00 0.0000000000000000e+00
ITEM: ATOMS id fy
3 3.27909
ITEM: TIMESTEP
3100
ITEM: NUMBER OF ATOMS
1
ITEM: BOX BOUNDS xy xz yz ff ff pp
0.0000000000000000e+00 5.0000000000000000e+01 0.0000000000000000e+00
0.0000000000000000e+00 5.0000000000000000e+01 0.0000000000000000e+00
-5.0000000000000000e+00 5.0000000000000000e+00 0.0000000000000000e+00
ITEM: ATOMS id fy
3 -0.825856
ITEM: TIMESTEP
3200
ITEM: NUMBER OF ATOMS
1
ITEM: BOX BOUNDS xy xz yz ff ff pp
0.0000000000000000e+00 5.0000000000000000e+01 0.0000000000000000e+00
0.0000000000000000e+00 5.0000000000000000e+01 0.0000000000000000e+00
-5.0000000000000000e+00 5.0000000000000000e+00 0.0000000000000000e+00
ITEM: ATOMS id fy
3 2.20883
ITEM: TIMESTEP
3300
ITEM: NUMBER OF ATOMS
1
ITEM: BOX BOUNDS xy xz yz ff ff pp
0.0000000000000000e+00 5.0000000000000000e+01 0.0000000000000000e+00
0.0000000000000000e+00 5.0000000000000000e+01 0.0000000000000000e+00
-5.0000000000000000e+00 5.0000000000000000e+00 0.0000000000000000e+00
ITEM: ATOMS id fy
3 -1.94615
ITEM: TIMESTEP
3400
ITEM: NUMBER OF ATOMS
1
ITEM: BOX BOUNDS xy xz yz ff ff pp
0.0000000000000000e+00 5.0000000000000000e+01 0.0000000000000000e+00
0.0000000000000000e+00 5.0000000000000000e+01 0.0000000000000000e+00
-5.0000000000000000e+00 5.0000000000000000e+00 0.0000000000000000e+00
ITEM: ATOMS id fy
3 -1.52531
ITEM: TIMESTEP
3500
ITEM: NUMBER OF ATOMS
1
ITEM: BOX BOUNDS xy xz yz ff ff pp
0.0000000000000000e+00 5.0000000000000000e+01 0.0000000000000000e+00
0.0000000000000000e+00 5.0000000000000000e+01 0.0000000000000000e+00
-5.0000000000000000e+00 5.0000000000000000e+00 0.0000000000000000e+00
ITEM: ATOMS id fy
3 0.755116
ITEM: TIMESTEP
3600
ITEM: NUMBER OF ATOMS
1
ITEM: BOX BOUNDS xy xz yz ff ff pp
0.0000000000000000e+00 5.0000000000000000e+01 0.0000000000000000e+00
0.0000000000000000e+00 5.0000000000000000e+01 0.0000000000000000e+00
-5.0000000000000000e+00 5.0000000000000000e+00 0.0000000000000000e+00
ITEM: ATOMS id fy
3 0.196499
ITEM: TIMESTEP
3700
ITEM: NUMBER OF ATOMS
1
ITEM: BOX BOUNDS xy xz yz ff ff pp
0.0000000000000000e+00 5.0000000000000000e+01 0.0000000000000000e+00
0.0000000000000000e+00 5.0000000000000000e+01 0.0000000000000000e+00
-5.0000000000000000e+00 5.0000000000000000e+00 0.0000000000000000e+00
ITEM: ATOMS id fy
3 1.166
ITEM: TIMESTEP
3800
ITEM: NUMBER OF ATOMS
1
ITEM: BOX BOUNDS xy xz yz ff ff pp
0.0000000000000000e+00 5.0000000000000000e+01 0.0000000000000000e+00
0.0000000000000000e+00 5.0000000000000000e+01 0.0000000000000000e+00
-5.0000000000000000e+00 5.0000000000000000e+00 0.0000000000000000e+00
ITEM: ATOMS id fy
3 0.14969
ITEM: TIMESTEP
3900
ITEM: NUMBER OF ATOMS
1
ITEM: BOX BOUNDS xy xz yz ff ff pp
0.0000000000000000e+00 5.0000000000000000e+01 0.0000000000000000e+00
0.0000000000000000e+00 5.0000000000000000e+01 0.0000000000000000e+00
-5.0000000000000000e+00 5.0000000000000000e+00 0.0000000000000000e+00
ITEM: ATOMS id fy
3 -0.0699302
ITEM: TIMESTEP
4000
ITEM: NUMBER OF ATOMS
1
ITEM: BOX BOUNDS xy xz yz ff ff pp
0.0000000000000000e+00 5.0000000000000000e+01 0.0000000000000000e+00
0.0000000000000000e+00 5.0000000000000000e+01 0.0000000000000000e+00
-5.0000000000000000e+00 5.0000000000000000e+00 0.0000000000000000e+00
ITEM: ATOMS id fy
3 2.19986
ITEM: TIMESTEP
4100
ITEM: NUMBER OF ATOMS
1
ITEM: BOX BOUNDS xy xz yz ff ff pp
0.0000000000000000e+00 5.0000000000000000e+01 0.0000000000000000e+00
0.0000000000000000e+00 5.0000000000000000e+01 0.0000000000000000e+00
-5.0000000000000000e+00 5.0000000000000000e+00 0.0000000000000000e+00
ITEM: ATOMS id fy
3 -1.61176
ITEM: TIMESTEP
4200
ITEM: NUMBER OF ATOMS
1
ITEM: BOX BOUNDS xy xz yz ff ff pp
0.0000000000000000e+00 5.0000000000000000e+01 0.0000000000000000e+00
0.0000000000000000e+00 5.0000000000000000e+01 0.0000000000000000e+00
-5.0000000000000000e+00 5.0000000000000000e+00 0.0000000000000000e+00
ITEM: ATOMS id fy
3 0.321624
ITEM: TIMESTEP
4300
ITEM: NUMBER OF ATOMS
1
ITEM: BOX BOUNDS xy xz yz ff ff pp
0.0000000000000000e+00 5.0000000000000000e+01 0.0000000000000000e+00
0.0000000000000000e+00 5.0000000000000000e+01 0.0000000000000000e+00
-5.0000000000000000e+00 5.0000000000000000e+00 0.0000000000000000e+00
ITEM: ATOMS id fy
3 -0.332079
ITEM: TIMESTEP
4400
ITEM: NUMBER OF ATOMS
1
ITEM: BOX BOUNDS xy xz yz ff ff pp
0.0000000000000000e+00 5.0000000000000000e+01 0.0000000000000000e+00
0.0000000000000000e+00 5.0000000000000000e+01 0.0000000000000000e+00
-5.0000000000000000e+00 5.0000000000000000e+00 0.0000000000000000e+00
ITEM: ATOMS id fy
3 0.303417
ITEM: TIMESTEP
4500
ITEM: NUMBER OF ATOMS
1
ITEM: BOX BOUNDS xy xz yz ff ff pp
0.0000000000000000e+00 5.0000000000000000e+01 0.0000000000000000e+00
0.0000000000000000e+00 5.0000000000000000e+01 0.0000000000000000e+00
-5.0000000000000000e+00 5.0000000000000000e+00 0.0000000000000000e+00
ITEM: ATOMS id fy
3 0.0167834
ITEM: TIMESTEP
4600
ITEM: NUMBER OF ATOMS
1
ITEM: BOX BOUNDS xy xz yz ff ff pp
0.0000000000000000e+00 5.0000000000000000e+01 0.0000000000000000e+00
0.0000000000000000e+00 5.0000000000000000e+01 0.0000000000000000e+00
-5.0000000000000000e+00 5.0000000000000000e+00 0.0000000000000000e+00
ITEM: ATOMS id fy
3 0.0829873
ITEM: TIMESTEP
4700
ITEM: NUMBER OF ATOMS
1
ITEM: BOX BOUNDS xy xz yz ff ff pp
0.0000000000000000e+00 5.0000000000000000e+01 0.0000000000000000e+00
0.0000000000000000e+00 5.0000000000000000e+01 0.0000000000000000e+00
-5.0000000000000000e+00 5.0000000000000000e+00 0.0000000000000000e+00
ITEM: ATOMS id fy
3 -0.202355
ITEM: TIMESTEP
4800
ITEM: NUMBER OF ATOMS
1
ITEM: BOX BOUNDS xy xz yz ff ff pp
0.0000000000000000e+00 5.0000000000000000e+01 0.0000000000000000e+00
0.0000000000000000e+00 5.0000000000000000e+01 0.0000000000000000e+00
-5.0000000000000000e+00 5.0000000000000000e+00 0.0000000000000000e+00
ITEM: ATOMS id fy
3 -0.140026
ITEM: TIMESTEP
4900
ITEM: NUMBER OF ATOMS
1
ITEM: BOX BOUNDS xy xz yz ff ff pp
0.0000000000000000e+00 5.0000000000000000e+01 0.0000000000000000e+00
0.0000000000000000e+00 5.0000000000000000e+01 0.0000000000000000e+00
-5.0000000000000000e+00 5.0000000000000000e+00 0.0000000000000000e+00
ITEM: ATOMS id fy
3 -0.112369
ITEM: TIMESTEP
5000
ITEM: NUMBER OF ATOMS
1
ITEM: BOX BOUNDS xy xz yz ff ff pp
0.0000000000000000e+00 5.0000000000000000e+01 0.0000000000000000e+00
0.0000000000000000e+00 5.0000000000000000e+01 0.0000000000000000e+00
-5.0000000000000000e+00 5.0000000000000000e+00 0.0000000000000000e+00
ITEM: ATOMS id fy
3 0.050026
ITEM: TIMESTEP
5100
ITEM: NUMBER OF ATOMS
1
ITEM: BOX BOUNDS xy xz yz ff ff pp
0.0000000000000000e+00 5.0000000000000000e+01 0.0000000000000000e+00
0.0000000000000000e+00 5.0000000000000000e+01 0.0000000000000000e+00
-5.0000000000000000e+00 5.0000000000000000e+00 0.0000000000000000e+00
ITEM: ATOMS id fy
3 0.200503
ITEM: TIMESTEP
5200
ITEM: NUMBER OF ATOMS
1
ITEM: BOX BOUNDS xy xz yz ff ff pp
0.0000000000000000e+00 5.0000000000000000e+01 0.0000000000000000e+00
0.0000000000000000e+00 5.0000000000000000e+01 0.0000000000000000e+00
-5.0000000000000000e+00 5.0000000000000000e+00 0.0000000000000000e+00
ITEM: ATOMS id fy
3 0.256155
ITEM: TIMESTEP
5300
ITEM: NUMBER OF ATOMS
1
ITEM: BOX BOUNDS xy xz yz ff ff pp
0.0000000000000000e+00 5.0000000000000000e+01 0.0000000000000000e+00
0.0000000000000000e+00 5.0000000000000000e+01 0.0000000000000000e+00
-5.0000000000000000e+00 5.0000000000000000e+00 0.0000000000000000e+00
ITEM: ATOMS id fy
3 0.199611
ITEM: TIMESTEP
5400
ITEM: NUMBER OF ATOMS
1
ITEM: BOX BOUNDS xy xz yz ff ff pp
0.0000000000000000e+00 5.0000000000000000e+01 0.0000000000000000e+00
0.0000000000000000e+00 5.0000000000000000e+01 0.0000000000000000e+00
-5.0000000000000000e+00 5.0000000000000000e+00 0.0000000000000000e+00
ITEM: ATOMS id fy
3 0.0792844
ITEM: TIMESTEP
5500
ITEM: NUMBER OF ATOMS
1
ITEM: BOX BOUNDS xy xz yz ff ff pp
0.0000000000000000e+00 5.0000000000000000e+01 0.0000000000000000e+00
0.0000000000000000e+00 5.0000000000000000e+01 0.0000000000000000e+00
-5.0000000000000000e+00 5.0000000000000000e+00 0.0000000000000000e+00
ITEM: ATOMS id fy
3 -0.0265618
ITEM: TIMESTEP
5600
ITEM: NUMBER OF ATOMS
1
ITEM: BOX BOUNDS xy xz yz ff ff pp
0.0000000000000000e+00 5.0000000000000000e+01 0.0000000000000000e+00
0.0000000000000000e+00 5.0000000000000000e+01 0.0000000000000000e+00
-5.0000000000000000e+00 5.0000000000000000e+00 0.0000000000000000e+00
ITEM: ATOMS id fy
3 -0.0791764
ITEM: TIMESTEP
5700
ITEM: NUMBER OF ATOMS
1
ITEM: BOX BOUNDS xy xz yz ff ff pp
0.0000000000000000e+00 5.0000000000000000e+01 0.0000000000000000e+00
0.0000000000000000e+00 5.0000000000000000e+01 0.0000000000000000e+00
-5.0000000000000000e+00 5.0000000000000000e+00 0.0000000000000000e+00
ITEM: ATOMS id fy
3 -0.0666252
ITEM: TIMESTEP
5800
ITEM: NUMBER OF ATOMS
1
ITEM: BOX BOUNDS xy xz yz ff ff pp
0.0000000000000000e+00 5.0000000000000000e+01 0.0000000000000000e+00
0.0000000000000000e+00 5.0000000000000000e+01 0.0000000000000000e+00
-5.0000000000000000e+00 5.0000000000000000e+00 0.0000000000000000e+00
ITEM: ATOMS id fy
3 -0.0205292
ITEM: TIMESTEP
5900
ITEM: NUMBER OF ATOMS
1
ITEM: BOX BOUNDS xy xz yz ff ff pp
0.0000000000000000e+00 5.0000000000000000e+01 0.0000000000000000e+00
0.0000000000000000e+00 5.0000000000000000e+01 0.0000000000000000e+00
-5.0000000000000000e+00 5.0000000000000000e+00 0.0000000000000000e+00
ITEM: ATOMS id fy
3 0.0192624
ITEM: TIMESTEP
6000
ITEM: NUMBER OF ATOMS
1
ITEM: BOX BOUNDS xy xz yz ff ff pp
0.0000000000000000e+00 5.0000000000000000e+01 0.0000000000000000e+00
0.0000000000000000e+00 5.0000000000000000e+01 0.0000000000000000e+00
-5.0000000000000000e+00 5.0000000000000000e+00 0.0000000000000000e+00
ITEM: ATOMS id fy
3 0.0250901
ITEM: TIMESTEP
6100
ITEM: NUMBER OF ATOMS
1
ITEM: BOX BOUNDS xy xz yz ff ff pp
0.0000000000000000e+00 5.0000000000000000e+01 0.0000000000000000e+00
0.0000000000000000e+00 5.0000000000000000e+01 0.0000000000000000e+00
-5.0000000000000000e+00 5.0000000000000000e+00 0.0000000000000000e+00
ITEM: ATOMS id fy
3 -0.00281538
ITEM: TIMESTEP
6200
ITEM: NUMBER OF ATOMS
1
ITEM: BOX BOUNDS xy xz yz ff ff pp
0.0000000000000000e+00 5.0000000000000000e+01 0.0000000000000000e+00
0.0000000000000000e+00 5.0000000000000000e+01 0.0000000000000000e+00
-5.0000000000000000e+00 5.0000000000000000e+00 0.0000000000000000e+00
ITEM: ATOMS id fy
3 -0.0456581
ITEM: TIMESTEP
6300
ITEM: NUMBER OF ATOMS
1
ITEM: BOX BOUNDS xy xz yz ff ff pp
0.0000000000000000e+00 5.0000000000000000e+01 0.0000000000000000e+00
0.0000000000000000e+00 5.0000000000000000e+01 0.0000000000000000e+00
-5.0000000000000000e+00 5.0000000000000000e+00 0.0000000000000000e+00
ITEM: ATOMS id fy
3 -0.0778154
ITEM: TIMESTEP
6400
ITEM: NUMBER OF ATOMS
1
ITEM: BOX BOUNDS xy xz yz ff ff pp
0.0000000000000000e+00 5.0000000000000000e+01 0.0000000000000000e+00
0.0000000000000000e+00 5.0000000000000000e+01 0.0000000000000000e+00
-5.0000000000000000e+00 5.0000000000000000e+00 0.0000000000000000e+00
ITEM: ATOMS id fy
3 -0.0837849
ITEM: TIMESTEP
6500
ITEM: NUMBER OF ATOMS
1
ITEM: BOX BOUNDS xy xz yz ff ff pp
0.0000000000000000e+00 5.0000000000000000e+01 0.0000000000000000e+00
0.0000000000000000e+00 5.0000000000000000e+01 0.0000000000000000e+00
-5.0000000000000000e+00 5.0000000000000000e+00 0.0000000000000000e+00
ITEM: ATOMS id fy
3 -0.0635952
ITEM: TIMESTEP
6600
ITEM: NUMBER OF ATOMS
1
ITEM: BOX BOUNDS xy xz yz ff ff pp
0.0000000000000000e+00 5.0000000000000000e+01 0.0000000000000000e+00
0.0000000000000000e+00 5.0000000000000000e+01 0.0000000000000000e+00
-5.0000000000000000e+00 5.0000000000000000e+00 0.0000000000000000e+00
ITEM: ATOMS id fy
3 -0.0310707
ITEM: TIMESTEP
6700
ITEM: NUMBER OF ATOMS
1
ITEM: BOX BOUNDS xy xz yz ff ff pp
0.0000000000000000e+00 5.0000000000000000e+01 0.0000000000000000e+00
0.0000000000000000e+00 5.0000000000000000e+01 0.0000000000000000e+00
-5.0000000000000000e+00 5.0000000000000000e+00 0.0000000000000000e+00
ITEM: ATOMS id fy
3 -0.00274995
ITEM: TIMESTEP
6800
ITEM: NUMBER OF ATOMS
1
ITEM: BOX BOUNDS xy xz yz ff ff pp
0.0000000000000000e+00 5.0000000000000000e+01 0.0000000000000000e+00
0.0000000000000000e+00 5.0000000000000000e+01 0.0000000000000000e+00
-5.0000000000000000e+00 5.0000000000000000e+00 0.0000000000000000e+00
ITEM: ATOMS id fy
3 0.0115345
ITEM: TIMESTEP
6900
ITEM: NUMBER OF ATOMS
1
ITEM: BOX BOUNDS xy xz yz ff ff pp
0.0000000000000000e+00 5.0000000000000000e+01 0.0000000000000000e+00
0.0000000000000000e+00 5.0000000000000000e+01 0.0000000000000000e+00
-5.0000000000000000e+00 5.0000000000000000e+00 0.0000000000000000e+00
ITEM: ATOMS id fy
3 0.0128749
ITEM: TIMESTEP
7000
ITEM: NUMBER OF ATOMS
1
ITEM: BOX BOUNDS xy xz yz ff ff pp
0.0000000000000000e+00 5.0000000000000000e+01 0.0000000000000000e+00
0.0000000000000000e+00 5.0000000000000000e+01 0.0000000000000000e+00
-5.0000000000000000e+00 5.0000000000000000e+00 0.0000000000000000e+00
ITEM: ATOMS id fy
3 0.00967786
ITEM: TIMESTEP
7100
ITEM: NUMBER OF ATOMS
1
ITEM: BOX BOUNDS xy xz yz ff ff pp
0.0000000000000000e+00 5.0000000000000000e+01 0.0000000000000000e+00
0.0000000000000000e+00 5.0000000000000000e+01 0.0000000000000000e+00
-5.0000000000000000e+00 5.0000000000000000e+00 0.0000000000000000e+00
ITEM: ATOMS id fy
3 0.0108433
ITEM: TIMESTEP
7200
ITEM: NUMBER OF ATOMS
1
ITEM: BOX BOUNDS xy xz yz ff ff pp
0.0000000000000000e+00 5.0000000000000000e+01 0.0000000000000000e+00
0.0000000000000000e+00 5.0000000000000000e+01 0.0000000000000000e+00
-5.0000000000000000e+00 5.0000000000000000e+00 0.0000000000000000e+00
ITEM: ATOMS id fy
3 0.0200895
ITEM: TIMESTEP
7300
ITEM: NUMBER OF ATOMS
1
ITEM: BOX BOUNDS xy xz yz ff ff pp
0.0000000000000000e+00 5.0000000000000000e+01 0.0000000000000000e+00
0.0000000000000000e+00 5.0000000000000000e+01 0.0000000000000000e+00
-5.0000000000000000e+00 5.0000000000000000e+00 0.0000000000000000e+00
ITEM: ATOMS id fy
3 0.0345711
ITEM: TIMESTEP
7400
ITEM: NUMBER OF ATOMS
1
ITEM: BOX BOUNDS xy xz yz ff ff pp
0.0000000000000000e+00 5.0000000000000000e+01 0.0000000000000000e+00
0.0000000000000000e+00 5.0000000000000000e+01 0.0000000000000000e+00
-5.0000000000000000e+00 5.0000000000000000e+00 0.0000000000000000e+00
ITEM: ATOMS id fy
3 0.0475789
ITEM: TIMESTEP
7500
ITEM: NUMBER OF ATOMS
1
ITEM: BOX BOUNDS xy xz yz ff ff pp
0.0000000000000000e+00 5.0000000000000000e+01 0.0000000000000000e+00
0.0000000000000000e+00 5.0000000000000000e+01 0.0000000000000000e+00
-5.0000000000000000e+00 5.0000000000000000e+00 0.0000000000000000e+00
ITEM: ATOMS id fy
3 0.052864
ITEM: TIMESTEP
7600
ITEM: NUMBER OF ATOMS
1
ITEM: BOX BOUNDS xy xz yz ff ff pp
0.0000000000000000e+00 5.0000000000000000e+01 0.0000000000000000e+00
0.0000000000000000e+00 5.0000000000000000e+01 0.0000000000000000e+00
-5.0000000000000000e+00 5.0000000000000000e+00 0.0000000000000000e+00
ITEM: ATOMS id fy
3 0.0479937
ITEM: TIMESTEP
7700
ITEM: NUMBER OF ATOMS
1
ITEM: BOX BOUNDS xy xz yz ff ff pp
0.0000000000000000e+00 5.0000000000000000e+01 0.0000000000000000e+00
0.0000000000000000e+00 5.0000000000000000e+01 0.0000000000000000e+00
-5.0000000000000000e+00 5.0000000000000000e+00 0.0000000000000000e+00
ITEM: ATOMS id fy
3 0.0351067
ITEM: TIMESTEP
7800
ITEM: NUMBER OF ATOMS
1
ITEM: BOX BOUNDS xy xz yz ff ff pp
0.0000000000000000e+00 5.0000000000000000e+01 0.0000000000000000e+00
0.0000000000000000e+00 5.0000000000000000e+01 0.0000000000000000e+00
-5.0000000000000000e+00 5.0000000000000000e+00 0.0000000000000000e+00
ITEM: ATOMS id fy
3 0.019123
ITEM: TIMESTEP
7900
ITEM: NUMBER OF ATOMS
1
ITEM: BOX BOUNDS xy xz yz ff ff pp
0.0000000000000000e+00 5.0000000000000000e+01 0.0000000000000000e+00
0.0000000000000000e+00 5.0000000000000000e+01 0.0000000000000000e+00
-5.0000000000000000e+00 5.0000000000000000e+00 0.0000000000000000e+00
ITEM: ATOMS id fy
3 0.00476624
ITEM: TIMESTEP
8000
ITEM: NUMBER OF ATOMS
1
ITEM: BOX BOUNDS xy xz yz ff ff pp
0.0000000000000000e+00 5.0000000000000000e+01 0.0000000000000000e+00
0.0000000000000000e+00 5.0000000000000000e+01 0.0000000000000000e+00
-5.0000000000000000e+00 5.0000000000000000e+00 0.0000000000000000e+00
ITEM: ATOMS id fy
3 -0.00567536
ITEM: TIMESTEP
8100
ITEM: NUMBER OF ATOMS
1
ITEM: BOX BOUNDS xy xz yz ff ff pp
0.0000000000000000e+00 5.0000000000000000e+01 0.0000000000000000e+00
0.0000000000000000e+00 5.0000000000000000e+01 0.0000000000000000e+00
-5.0000000000000000e+00 5.0000000000000000e+00 0.0000000000000000e+00
ITEM: ATOMS id fy
3 -0.0127189
ITEM: TIMESTEP
8200
ITEM: NUMBER OF ATOMS
1
ITEM: BOX BOUNDS xy xz yz ff ff pp
0.0000000000000000e+00 5.0000000000000000e+01 0.0000000000000000e+00
0.0000000000000000e+00 5.0000000000000000e+01 0.0000000000000000e+00
-5.0000000000000000e+00 5.0000000000000000e+00 0.0000000000000000e+00
ITEM: ATOMS id fy
3 -0.0183836
ITEM: TIMESTEP
8300
ITEM: NUMBER OF ATOMS
1
ITEM: BOX BOUNDS xy xz yz ff ff pp
0.0000000000000000e+00 5.0000000000000000e+01 0.0000000000000000e+00
0.0000000000000000e+00 5.0000000000000000e+01 0.0000000000000000e+00
-5.0000000000000000e+00 5.0000000000000000e+00 0.0000000000000000e+00
ITEM: ATOMS id fy
3 -0.0243406
ITEM: TIMESTEP
8400
ITEM: NUMBER OF ATOMS
1
ITEM: BOX BOUNDS xy xz yz ff ff pp
0.0000000000000000e+00 5.0000000000000000e+01 0.0000000000000000e+00
0.0000000000000000e+00 5.0000000000000000e+01 0.0000000000000000e+00
-5.0000000000000000e+00 5.0000000000000000e+00 0.0000000000000000e+00
ITEM: ATOMS id fy
3 -0.0307037
ITEM: TIMESTEP
8500
ITEM: NUMBER OF ATOMS
1
ITEM: BOX BOUNDS xy xz yz ff ff pp
0.0000000000000000e+00 5.0000000000000000e+01 0.0000000000000000e+00
0.0000000000000000e+00 5.0000000000000000e+01 0.0000000000000000e+00
-5.0000000000000000e+00 5.0000000000000000e+00 0.0000000000000000e+00
ITEM: ATOMS id fy
3 -0.0360424
ITEM: TIMESTEP
8600
ITEM: NUMBER OF ATOMS
1
ITEM: BOX BOUNDS xy xz yz ff ff pp
0.0000000000000000e+00 5.0000000000000000e+01 0.0000000000000000e+00
0.0000000000000000e+00 5.0000000000000000e+01 0.0000000000000000e+00
-5.0000000000000000e+00 5.0000000000000000e+00 0.0000000000000000e+00
ITEM: ATOMS id fy
3 -0.0383698
ITEM: TIMESTEP
8700
ITEM: NUMBER OF ATOMS
1
ITEM: BOX BOUNDS xy xz yz ff ff pp
0.0000000000000000e+00 5.0000000000000000e+01 0.0000000000000000e+00
0.0000000000000000e+00 5.0000000000000000e+01 0.0000000000000000e+00
-5.0000000000000000e+00 5.0000000000000000e+00 0.0000000000000000e+00
ITEM: ATOMS id fy
3 -0.0363592
ITEM: TIMESTEP
8800
ITEM: NUMBER OF ATOMS
1
ITEM: BOX BOUNDS xy xz yz ff ff pp
0.0000000000000000e+00 5.0000000000000000e+01 0.0000000000000000e+00
0.0000000000000000e+00 5.0000000000000000e+01 0.0000000000000000e+00
-5.0000000000000000e+00 5.0000000000000000e+00 0.0000000000000000e+00
ITEM: ATOMS id fy
3 -0.0300498
ITEM: TIMESTEP
8900
ITEM: NUMBER OF ATOMS
1
ITEM: BOX BOUNDS xy xz yz ff ff pp
0.0000000000000000e+00 5.0000000000000000e+01 0.0000000000000000e+00
0.0000000000000000e+00 5.0000000000000000e+01 0.0000000000000000e+00
-5.0000000000000000e+00 5.0000000000000000e+00 0.0000000000000000e+00
ITEM: ATOMS id fy
3 -0.02074
ITEM: TIMESTEP
9000
ITEM: NUMBER OF ATOMS
1
ITEM: BOX BOUNDS xy xz yz ff ff pp
0.0000000000000000e+00 5.0000000000000000e+01 0.0000000000000000e+00
0.0000000000000000e+00 5.0000000000000000e+01 0.0000000000000000e+00
-5.0000000000000000e+00 5.0000000000000000e+00 0.0000000000000000e+00
ITEM: ATOMS id fy
3 -0.0102717
ITEM: TIMESTEP
9100
ITEM: NUMBER OF ATOMS
1
ITEM: BOX BOUNDS xy xz yz ff ff pp
0.0000000000000000e+00 5.0000000000000000e+01 0.0000000000000000e+00
0.0000000000000000e+00 5.0000000000000000e+01 0.0000000000000000e+00
-5.0000000000000000e+00 5.0000000000000000e+00 0.0000000000000000e+00
ITEM: ATOMS id fy
3 0.302798
ITEM: TIMESTEP
9200
ITEM: NUMBER OF ATOMS
1
ITEM: BOX BOUNDS xy xz yz ff ff pp
0.0000000000000000e+00 5.0000000000000000e+01 0.0000000000000000e+00
0.0000000000000000e+00 5.0000000000000000e+01 0.0000000000000000e+00
-5.0000000000000000e+00 5.0000000000000000e+00 0.0000000000000000e+00
ITEM: ATOMS id fy
3 -0.15616
ITEM: TIMESTEP
9300
ITEM: NUMBER OF ATOMS
1
ITEM: BOX BOUNDS xy xz yz ff ff pp
0.0000000000000000e+00 5.0000000000000000e+01 0.0000000000000000e+00
0.0000000000000000e+00 5.0000000000000000e+01 0.0000000000000000e+00
-5.0000000000000000e+00 5.0000000000000000e+00 0.0000000000000000e+00
ITEM: ATOMS id fy
3 -0.516377
ITEM: TIMESTEP
9400
ITEM: NUMBER OF ATOMS
1
ITEM: BOX BOUNDS xy xz yz ff ff pp
0.0000000000000000e+00 5.0000000000000000e+01 0.0000000000000000e+00
0.0000000000000000e+00 5.0000000000000000e+01 0.0000000000000000e+00
-5.0000000000000000e+00 5.0000000000000000e+00 0.0000000000000000e+00
ITEM: ATOMS id fy
3 -0.100714
ITEM: TIMESTEP
9500
ITEM: NUMBER OF ATOMS
1
ITEM: BOX BOUNDS xy xz yz ff ff pp
0.0000000000000000e+00 5.0000000000000000e+01 0.0000000000000000e+00
0.0000000000000000e+00 5.0000000000000000e+01 0.0000000000000000e+00
-5.0000000000000000e+00 5.0000000000000000e+00 0.0000000000000000e+00
ITEM: ATOMS id fy
3 -0.0791046
ITEM: TIMESTEP
9600
ITEM: NUMBER OF ATOMS
1
ITEM: BOX BOUNDS xy xz yz ff ff pp
0.0000000000000000e+00 5.0000000000000000e+01 0.0000000000000000e+00
0.0000000000000000e+00 5.0000000000000000e+01 0.0000000000000000e+00
-5.0000000000000000e+00 5.0000000000000000e+00 0.0000000000000000e+00
ITEM: ATOMS id fy
3 -0.0607865
ITEM: TIMESTEP
9700
ITEM: NUMBER OF ATOMS
1
ITEM: BOX BOUNDS xy xz yz ff ff pp
0.0000000000000000e+00 5.0000000000000000e+01 0.0000000000000000e+00
0.0000000000000000e+00 5.0000000000000000e+01 0.0000000000000000e+00
-5.0000000000000000e+00 5.0000000000000000e+00 0.0000000000000000e+00
ITEM: ATOMS id fy
3 0.000948824
ITEM: TIMESTEP
9800
ITEM: NUMBER OF ATOMS
1
ITEM: BOX BOUNDS xy xz yz ff ff pp
0.0000000000000000e+00 5.0000000000000000e+01 0.0000000000000000e+00
0.0000000000000000e+00 5.0000000000000000e+01 0.0000000000000000e+00
-5.0000000000000000e+00 5.0000000000000000e+00 0.0000000000000000e+00
ITEM: ATOMS id fy
3 -0.0606941
ITEM: TIMESTEP
9900
ITEM: NUMBER OF ATOMS
1
ITEM: BOX BOUNDS xy xz yz ff ff pp
0.0000000000000000e+00 5.0000000000000000e+01 0.0000000000000000e+00
0.0000000000000000e+00 5.0000000000000000e+01 0.0000000000000000e+00
-5.0000000000000000e+00 5.0000000000000000e+00 0.0000000000000000e+00
ITEM: ATOMS id fy
3 -0.0329239
ITEM: TIMESTEP
10000
ITEM: NUMBER OF ATOMS
1
ITEM: BOX BOUNDS xy xz yz ff ff pp
0.0000000000000000e+00 5.0000000000000000e+01 0.0000000000000000e+00
0.0000000000000000e+00 5.0000000000000000e+01 0.0000000000000000e+00
-5.0000000000000000e+00 5.0000000000000000e+00 0.0000000000000000e+00
ITEM: ATOMS id fy
3 -0.0190893
ITEM: TIMESTEP
10100
ITEM: NUMBER OF ATOMS
1
ITEM: BOX BOUNDS xy xz yz ff ff pp
0.0000000000000000e+00 5.0000000000000000e+01 0.0000000000000000e+00
0.0000000000000000e+00 5.0000000000000000e+01 0.0000000000000000e+00
-5.0000000000000000e+00 5.0000000000000000e+00 0.0000000000000000e+00
ITEM: ATOMS id fy
3 -0.00347066
ITEM: TIMESTEP
10200
ITEM: NUMBER OF ATOMS
1
ITEM: BOX BOUNDS xy xz yz ff ff pp
0.0000000000000000e+00 5.0000000000000000e+01 0.0000000000000000e+00
0.0000000000000000e+00 5.0000000000000000e+01 0.0000000000000000e+00
-5.0000000000000000e+00 5.0000000000000000e+00 0.0000000000000000e+00
ITEM: ATOMS id fy
3 0.00675444
ITEM: TIMESTEP
10300
ITEM: NUMBER OF ATOMS
1
ITEM: BOX BOUNDS xy xz yz ff ff pp
0.0000000000000000e+00 5.0000000000000000e+01 0.0000000000000000e+00
0.0000000000000000e+00 5.0000000000000000e+01 0.0000000000000000e+00
-5.0000000000000000e+00 5.0000000000000000e+00 0.0000000000000000e+00
ITEM: ATOMS id fy
3 0.00384931
ITEM: TIMESTEP
10400
ITEM: NUMBER OF ATOMS
1
ITEM: BOX BOUNDS xy xz yz ff ff pp
0.0000000000000000e+00 5.0000000000000000e+01 0.0000000000000000e+00