
23 atoms
3 atom types

0 50 xlo xhi
0 50 ylo yhi
-5 5 zlo zhi
0 0 0 xy xz yz

Atoms # sphere

1 1 10 1 5.0 5.0 0
2 1 10 1 15.0 5.0 0
3 1 10 1 25.0 5.0 0
4 1 10 1 35.0 5.0 0
5 1 10 1 45.0 5.0 0
6 1 10 1 10 13.660254037844387 0
7 1 10 1 20 13.660254037844387 0
8 1 10 1 30 13.660254037844387 0
9 1 10 1 40 13.660254037844387 0
10 1 10 1 5.0 22.320508075688775 0
11 1 10 1 15.0 22.320508075688775 0
12 1 10 1 25.0 22.320508075688775 0
13 3 10 1 35.0 22.320508075688775 0
14 1 10 1 45.0 22.320508075688775 0
15 1 10 1 10 30.98076211353316 0
16 1 10 1 20 30.98076211353316 0
17 1 10 1 30 30.98076211353316 0
18 1 10 1 40 30.98076211353316 0
19 2 10 1 5.0 39.64101615137755 0
20 2 10 1 15.0 39.64101615137755 0
21 2 10 1 25.0 39.64101615137755 0
22 2 10 1 35.0 39.64101615137755 0
23 2 10 1 45.0 39.64101615137755 0
