ITEM: TIMESTEP
1000
ITEM: NUMBER OF ATOMS
23
ITEM: BOX BOUNDS xy xz yz ff ff pp
0.0000000000000000e+00 5.0000000000000000e+01 0.0000000000000000e+00
0.0000000000000000e+00 5.0000000000000000e+01 0.0000000000000000e+00
-5.0000000000000000e+00 5.0000000000000000e+00 0.0000000000000000e+00
ITEM: ATOMS id x y z fx fy fz radius
1 5.00096 4.99999 0 -6.39984e-05 -5.86276e-06 0 5
2 15.0002 4.99999 0 -0.00131997 -3.18115e-05 0 5
3 24.998 4.99998 0 -0.000938249 -8.1732e-06 0 5
4 34.9936 4.99997 0 0.0031958 2.06889e-05 0 5
5 44.9903 4.99992 0 0.000585304 4.92402e-05 0 5
6 10.0003 13.6601 0 -0.00130267 -0.000763443 0 5
7 19.9994 13.66 0 -0.0023422 -0.000985184 0 5
8 29.9972 13.6599 0 -0.00140548 -0.000668542 0 5
9 39.9949 13.6601 0 0.00045087 -0.000684766 0 5
10 5.00094 22.3202 0 -8.88242e-05 -0.000906205 0 5
11 14.9998 22.3197 0 -0.00224481 -0.000865 0 5
12 24.9973 22.3192 0 -0.00111847 1.40347e-05 0 5
13 34.9933 22.3192 0 0.00291913 0.00100494 0 5
14 44.9903 22.3199 0 0.000586556 0.000206904 0 5
15 9.99903 30.9792 0 -0.000458447 0.0016891 0 5
16 19.9974 30.9782 0 -8.25172e-05 0.00292392 0 5
17 29.9948 30.978 0 0.00061554 0.00313197 0 5
18 39.9925 30.9789 0 0.0018218 0.00200341 0 5
19 5.00022 39.641 0 0.00011751 -2.00004 0 5
20 14.9984 39.641 0 -0.0146853 -1.99995 0 5
21 24.9953 39.641 0 0.00510294 -1.99993 0 5
22 34.9927 39.641 0 0.00724168 -1.99987 0 5
23 44.9907 39.641 0 0.00175345 -1.99979 0 5
ITEM: TIMESTEP
1100
ITEM: NUMBER OF ATOMS
23
ITEM: BOX BOUNDS xy xz yz ff ff pp
0.0000000000000000e+00 5.0000000000000000e+01 0.0000000000000000e+00
0.0000000000000000e+00 5.0000000000000000e+01 0.0000000000000000e+00
-5.0000000000000000e+00 5.0000000000000000e+00 0.0000000000000000e+00
ITEM: ATOMS id x y z fx fy fz radius
1 5.00097 4.99999 0 -6.42335e-05 -1.59459e-05 0 5
2 15.0001 4.99998 0 -0.00144547 -1.36872e-05 0 5
3 24.9975 4.99997 0 -0.000319358 -6.76741e-06 0 5
4 34.993 4.99996 0 0.00321272 -1.27048e-05 0 5
5 44.9903 4.99992 0 0.000419863 3.33653e-05 0 5
6 10.0003 13.66 0 -0.00171084 -0.000923098 0 5
7 19.9991 13.6598 0 -0.00249386 -0.000937864 0 5
8 29.9964 13.6598 0 -0.000149449 -0.000517351 0 5
9 39.9942 13.66 0 0.000727083 -0.000755987 0 5
10 5.00094 22.3201 0 -0.000117236 -0.00104531 0 5
11 14.9994 22.3193 0 -0.00197869 -0.000497578 0 5
12 24.9965 22.3189 0 -0.000286003 0.000580698 0 5
13 34.9928 22.3189 0 0.00240747 0.00152314 0 5
14 44.9902 22.3197 0 0.000452706 0.000415353 0 5
15 9.99864 30.9789 0 0.000375898 -0.0215761 0 5
16 19.9968 30.978 0 0.000468781 -0.0168231 0 5
17 29.994 30.9781 0 0.00241156 -0.0185245 0 5
18 39.9917 30.9791 0 0.00350498 -0.02411 0 5
19 5.00029 39.6365 0 -0.00270075 -1.9744 0 5
20 14.9984 39.6364 0 -0.00600984 -1.97946 0 5
21 24.996 39.6365 0 -0.00410796 -1.97956 0 5
22 34.9933 39.6364 0 -0.00301052 -1.97663 0 5
23 44.9907 39.6366 0 0.00301589 -1.96998 0 5
ITEM: TIMESTEP
1200
ITEM: NUMBER OF ATOMS
23
ITEM: BOX BOUNDS xy xz yz ff ff pp
0.0000000000000000e+00 5.0000000000000000e+01 0.0000000000000000e+00
0.0000000000000000e+00 5.0000000000000000e+01 0.0000000000000000e+00
-5.0000000000000000e+00 5.0000000000000000e+00 0.0000000000000000e+00
ITEM: ATOMS id x y z fx fy fz radius
1 5.00097 4.99999 0 -7.64239e-05 -2.5177e-07 0 5
2 14.9999 4.99998 0 -0.00142442 -2.97995e-05 0 5
3 24.9969 4.99996 0 0.00037329 -3.4165e-06 0 5
4 34.9927 4.99996 0 0.00306339 1.95136e-05 0 5
5 44.9902 4.99992 0 0.00030452 1.59786e-05 0 5
6 10.0001 13.6599 0 -0.00206407 -0.00107364 0 5
7 19.9986 13.6596 0 -0.00238725 -0.000779361 0 5
8 29.9956 13.6596 0 0.00062481 -0.000267001 0 5
9 39.9934 13.6598 0 0.000909064 -0.000781547 0 5
10 5.00093 22.3198 0 -0.000216945 -0.00249697 0 5
11 14.9989 22.319 0 -0.00125675 -0.00359729 0 5
12 24.9957 22.3185 0 0.000790409 -0.00218237 0 5
13 34.9923 22.3187 0 0.00192768 -0.00205005 0 5
14 44.9902 22.3196 0 0.000529001 -0.000997452 0 5
15 9.99826 30.9775 0 0.000320926 -0.0814695 0 5
16 19.9963 30.9768 0 0.000798952 -0.078299 0 5
17 29.9933 30.9771 0 0.00368069 -0.0819235 0 5
18 39.9911 30.978 0 0.0046014 -0.0856784 0 5
19 5.00024 39.6238 0 -0.00268365 -1.93244 0 5
20 14.9981 39.6234 0 0.00423957 -1.91611 0 5
21 24.9964 39.6235 0 -0.0126419 -1.9132 0 5
22 34.9938 39.6235 0 -0.00880037 -1.91261 0 5
23 44.9908 39.6242 0 0.00210857 -1.92791 0 5
ITEM: TIMESTEP
1300
ITEM: NUMBER OF ATOMS
23
ITEM: BOX BOUNDS xy xz yz ff ff pp
0.0000000000000000e+00 5.0000000000000000e+01 0.0000000000000000e+00
0.0000000000000000e+00 5.0000000000000000e+01 0.0000000000000000e+00
-5.0000000000000000e+00 5.0000000000000000e+00 0.0000000000000000e+00
ITEM: ATOMS id x y z fx fy fz radius
1 5.00096 4.99998 0 -5.81786e-05 -2.20632e-05 0 5
2 14.9996 4.99997 0 -0.0011974 -3.21329e-05 0 5
3 24.9963 4.99996 0 0.00107006 -8.4177e-06 0 5
4 34.9924 4.99996 0 0.00263828 -3.05086e-05 0 5
5 44.9902 4.99993 0 0.000208048 2.1185e-05 0 5
6 9.99986 13.6597 0 -0.0024138 -0.00146767 0 5
7 19.998 13.6594 0 -0.00202307 -0.000959786 0 5
8 29.9948 13.6594 0 0.00108773 -0.00057219 0 5
9 39.9928 13.6597 0 0.0014322 -0.000664387 0 5
10 5.00091 22.3195 0 -0.000563599 -0.00729672 0 5
11 14.9984 22.3184 0 -0.000533046 -0.0134619 0 5
12 24.995 22.3181 0 0.00122674 -0.0121457 0 5
13 34.992 22.3184 0 0.00144844 -0.0130631 0 5
14 44.9902 22.3194 0 0.000745278 -0.00570552 0 5
15 9.9979 30.9721 0 0.00107771 -0.138764 0 5
16 19.9959 30.9719 0 0.0015925 -0.137327 0 5
17 29.9927 30.9722 0 0.00424229 -0.139212 0 5
18 39.9906 30.9729 0 0.00463819 -0.14202 0 5
19 5.00007 39.6049 0 -0.00107588 -1.88735 0 5
20 14.998 39.6049 0 0.00205298 -1.84814 0 5
21 24.9963 39.6052 0 -0.0100057 -1.84414 0 5
22 34.9939 39.6052 0 -0.00978914 -1.84582 0 5
23 44.9911 39.6056 0 0.000186316 -1.8864 0 5
ITEM: TIMESTEP
1400
ITEM: NUMBER OF ATOMS
23
ITEM: BOX BOUNDS xy xz yz ff ff pp
0.0000000000000000e+00 5.0000000000000000e+01 0.0000000000000000e+00
0.0000000000000000e+00 5.0000000000000000e+01 0.0000000000000000e+00
-5.0000000000000000e+00 5.0000000000000000e+00 0.0000000000000000e+00
ITEM: ATOMS id x y z fx fy fz radius
1 5.00096 4.99998 0 -5.65927e-05 -3.47685e-05 0 5
2 14.9993 4.99996 0 -0.000730345 -4.69484e-05 0 5
3 24.9958 4.99995 0 0.00167575 -3.70756e-05 0 5
4 34.9923 4.99996 0 0.00105868 -3.46584e-05 0 5
5 44.9901 4.99993 0 0.000156076 -4.72137e-06 0 5
6 9.99949 13.6594 0 -0.00257242 -0.00284558 0 5
7 19.9973 13.6591 0 -0.00116713 -0.00250048 0 5
8 29.994 13.6592 0 0.00124394 -0.00228741 0 5
9 39.9922 13.6595 0 0.00196264 -0.00166374 0 5
10 5.00086 22.3188 0 -0.000833091 -0.0153127 0 5
11 14.9979 22.3172 0 -0.000101768 -0.0311908 0 5
12 24.9943 22.317 0 0.00161045 -0.0299692 0 5
13 34.9917 22.3174 0 0.00105667 -0.0323708 0 5
14 44.9902 22.3189 0 0.000961461 -0.0144822 0 5
15 9.9976 30.9603 0 0.00451573 -0.165744 0 5
16 19.9954 30.9606 0 0.00216546 -0.162072 0 5
17 29.9924 30.9609 0 0.00366547 -0.16071 0 5
18 39.9904 30.9611 0 0.0015833 -0.165976 0 5
19 4.99984 39.5817 0 0.000103422 -1.85385 0 5
20 14.998 39.584 0 -0.00729334 -1.80441 0 5
21 24.9957 39.5846 0 -0.000732507 -1.8012 0 5
22 34.9936 39.5847 0 -0.00437782 -1.80509 0 5
23 44.9913 39.5829 0 -0.00153107 -1.858 0 5
ITEM: TIMESTEP
1500
ITEM: NUMBER OF ATOMS
23
ITEM: BOX BOUNDS xy xz yz ff ff pp
0.0000000000000000e+00 5.0000000000000000e+01 0.0000000000000000e+00
0.0000000000000000e+00 5.0000000000000000e+01 0.0000000000000000e+00
-5.0000000000000000e+00 5.0000000000000000e+00 0.0000000000000000e+00
ITEM: ATOMS id x y z fx fy fz radius
1 5.00095 4.99998 0 -6.35549e-05 -5.30942e-05 0 5
2 14.9989 4.99995 0 -0.000599856 -9.79881e-05 0 5
3 24.9954 4.99994 0 0.00125313 -8.61919e-05 0 5
4 34.9922 4.99996 0 0.000653423 -7.62466e-05 0 5
5 44.9901 4.99994 0 0.000121549 -3.82382e-05 0 5
6 9.999 13.659 0 -0.00291287 -0.00579498 0 5
7 19.9965 13.6587 0 -0.000371227 -0.00626555 0 5
8 29.9933 13.6589 0 0.00145724 -0.00647666 0 5
9 39.9917 13.6592 0 0.0026615 -0.00466296 0 5
10 5.00078 22.3173 0 -0.000952157 -0.0266877 0 5
11 14.9973 22.3144 0 0.000555332 -0.0543481 0 5
12 24.9937 22.3145 0 0.00192122 -0.0533245 0 5
13 34.9915 22.3148 0 0.000726741 -0.0569037 0 5
14 44.9902 22.3177 0 0.00104977 -0.0264077 0 5
15 9.99752 30.9406 0 0.0100519 -0.150393 0 5
16 19.9951 30.9417 0 0.00278225 -0.139201 0 5
17 29.9922 30.942 0 0.00186037 -0.136128 0 5
18 39.9902 30.9415 0 -0.0046242 -0.147671 0 5
19 4.9996 39.5558 0 0.000433363 -1.83609 0 5
20 14.9976 39.5628 0 -0.00898867 -1.80011 0 5
21 24.9951 39.5639 0 0.00365134 -1.79734 0 5
22 34.993 39.5638 0 0.00503591 -1.80298 0 5
23 44.9915 39.5574 0 -0.00206339 -1.84713 0 5
ITEM: TIMESTEP
1600
ITEM: NUMBER OF ATOMS
23
ITEM: BOX BOUNDS xy xz yz ff ff pp
0.0000000000000000e+00 5.0000000000000000e+01 0.0000000000000000e+00
0.0000000000000000e+00 5.0000000000000000e+01 0.0000000000000000e+00
-5.0000000000000000e+00 5.0000000000000000e+00 0.0000000000000000e+00
ITEM: ATOMS id x y z fx fy fz radius
1 5.00094 4.99997 0 -8.34187e-05 -8.51185e-05 0 5
2 14.9985 4.99994 0 -0.000393738 -0.00019377 0 5
3 24.995 4.99993 0 0.00072256 -0.000183959 0 5
4 34.9922 4.99995 0 0.000500016 -0.000199187 0 5
5 44.9901 4.99994 0 0.000104066 -9.00923e-05 0 5
6 9.99837 13.6583 0 -0.00344745 -0.01087 0 5
7 19.9958 13.6579 0 0.000114491 -0.013346 0 5
8 29.9927 13.6582 0 0.00159582 -0.0141458 0 5
9 39.9913 13.6587 0 0.00383245 -0.0101495 0 5
10 5.00065 22.3146 0 -0.000869089 -0.0397223 0 5
11 14.9968 22.3091 0 0.00167129 -0.0771851 0 5
12 24.9932 22.3094 0 0.00228414 -0.0760338 0 5
13 34.9913 22.3096 0 -2.42373e-05 -0.080457 0 5
14 44.9903 22.3153 0 0.00094389 -0.0397543 0 5
15 9.99793 30.914 0 0.0157005 -0.0998472 0 5
16 19.995 30.9163 0 0.00367166 -0.080157 0 5
17 29.9921 30.9167 0 -0.000836491 -0.0774895 0 5
18 39.9899 30.915 0 -0.0121891 -0.0969058 0 5
19 4.99938 39.5283 0 0.000697977 -1.83281 0 5
20 14.9968 39.5414 0 0.000129714 -1.82941 0 5
21 24.9946 39.5432 0 0.00283184 -1.8256 0 5
22 34.9927 39.5426 0 0.0103432 -1.83226 0 5
23 44.9916 39.5295 0 -0.00127738 -1.84898 0 5
ITEM: TIMESTEP
1700
ITEM: NUMBER OF ATOMS
23
ITEM: BOX BOUNDS xy xz yz ff ff pp
0.0000000000000000e+00 5.0000000000000000e+01 0.0000000000000000e+00
0.0000000000000000e+00 5.0000000000000000e+01 0.0000000000000000e+00
-5.0000000000000000e+00 5.0000000000000000e+00 0.0000000000000000e+00
ITEM: ATOMS id x y z fx fy fz radius
1 5.00093 4.99996 0 -9.60721e-05 -0.000156587 0 5
2 14.9981 4.99991 0 -0.00026697 -0.000326032 0 5
3 24.9947 4.9999 0 0.000752393 -0.000394197 0 5
4 34.9921 4.99993 0 0.000559571 -0.000346044 0 5
5 44.9901 4.99994 0 0.000104523 -0.000172021 0 5
6 9.99758 13.6571 0 -0.00429695 -0.0186363 0 5
7 19.995 13.6565 0 0.000620907 -0.0238977 0 5
8 29.9922 13.6568 0 0.0016462 -0.0253384 0 5
9 39.9911 13.6576 0 0.00538217 -0.0184456 0 5
10 5.00048 22.3099 0 -0.000597071 -0.051905 0 5
11 14.9964 22.3001 0 0.00313951 -0.0931396 0 5
12 24.9927 22.3007 0 0.00251434 -0.090948 0 5
13 34.991 22.3005 0 -0.00112035 -0.0964768 0 5
14 44.9905 22.3109 0 0.000663864 -0.0521834 0 5
15 9.99907 30.8826 0 0.0192797 -0.0354947 0 5
16 19.995 30.887 0 0.00528432 -0.0146296 0 5
17 29.992 30.8877 0 -0.0023702 -0.0132284 0 5
18 39.9889 30.8839 0 -0.0177716 -0.0358791 0 5
19 4.99919 39.4991 0 0.00127419 -1.83928 0 5
20 14.9961 39.5186 0 0.0098884 -1.86988 0 5
21 24.9943 39.5212 0 0.00346421 -1.86393 0 5
22 34.9928 39.5199 0 0.00467285 -1.87081 0 5
23 44.9916 39.4993 0 -0.000162914 -1.85423 0 5
ITEM: TIMESTEP
1800
ITEM: NUMBER OF ATOMS
23
ITEM: BOX BOUNDS xy xz yz ff ff pp
0.0000000000000000e+00 5.0000000000000000e+01 0.0000000000000000e+00
0.0000000000000000e+00 5.0000000000000000e+01 0.0000000000000000e+00
-5.0000000000000000e+00 5.0000000000000000e+00 0.0000000000000000e+00
ITEM: ATOMS id x y z fx fy fz radius
1 5.00091 4.99994 0 -7.63346e-05 -0.000294312 0 5
2 14.9977 4.99987 0 -9.82477e-05 -0.000565563 0 5
3 24.9944 4.99986 0 0.000735011 -0.000692515 0 5
4 34.9922 4.99989 0 0.000467192 -0.000589631 0 5
5 44.9901 4.99994 0 0.000117697 -0.000294198 0 5
6 9.99657 13.6549 0 -0.00547006 -0.0283335 0 5
7 19.9943 13.654 0 0.000995557 -0.0370052 0 5
8 29.9917 13.6543 0 0.00167178 -0.0389347 0 5
9 39.9912 13.6557 0 0.0073666 -0.0290309 0 5
10 5.00028 22.3028 0 -0.000221695 -0.0606927 0 5
11 14.9961 22.2867 0 0.00478838 -0.097959 0 5
12 24.9924 22.2878 0 0.00260721 -0.0940477 0 5
13 34.9908 22.2869 0 -0.0024634 -0.10024 0 5
14 44.9906 22.3041 0 0.000296754 -0.0617736 0 5
15 10.0011 30.8494 0 0.0204191 0.0164831 0 5
16 19.9953 30.8569 0 0.00780934 0.0271196 0 5
17 29.9918 30.858 0 -0.00303669 0.0269187 0 5
18 39.9871 30.8509 0 -0.0204585 0.010967 0 5
19 4.99906 39.468 0 0.00157158 -1.84826 0 5
20 14.9958 39.4926 0 0.0102883 -1.89482 0 5
21 24.9941 39.4963 0 0.00660802 -1.8872 0 5
22 34.9932 39.4939 0 -0.00401667 -1.89353 0 5
23 44.9916 39.4666 0 0.00028962 -1.85545 0 5
ITEM: TIMESTEP
1900
ITEM: NUMBER OF ATOMS
23
ITEM: BOX BOUNDS xy xz yz ff ff pp
0.0000000000000000e+00 5.0000000000000000e+01 0.0000000000000000e+00
0.0000000000000000e+00 5.0000000000000000e+01 0.0000000000000000e+00
-5.0000000000000000e+00 5.0000000000000000e+00 0.0000000000000000e+00
ITEM: ATOMS id x y z fx fy fz radius
1 5.00088 4.9999 0 -6.02936e-05 -0.000462662 0 5
2 14.9972 4.9998 0 -2.68973e-05 -0.000862588 0 5
3 24.9942 4.99978 0 0.00067461 -0.00105672 0 5
4 34.9922 4.99983 0 0.000496862 -0.000895937 0 5
5 44.9901 4.99991 0 0.000146675 -0.000445854 0 5
6 9.99531 13.6515 0 -0.00673065 -0.0385618 0 5
7 19.9936 13.6497 0 0.00118362 -0.0505912 0 5
8 29.9914 13.6498 0 0.00102207 -0.0527433 0 5
9 39.9916 13.6524 0 0.0100213 -0.0404373 0 5
10 5.00007 22.2929 0 0.000136195 -0.065919 0 5
11 14.996 22.2686 0 0.00659316 -0.0898691 0 5
12 24.9923 22.2703 0 0.00255502 -0.0857061 0 5
13 34.9904 22.2685 0 -0.00456637 -0.09123 0 5
14 44.9908 22.2944 0 6.1933e-05 -0.0675527 0 5
15 10.0041 30.8169 0 0.0187835 0.0376281 0 5
16 19.9959 30.828 0 0.01032 0.0299294 0 5
17 29.9914 30.8294 0 -0.00376147 0.0279461 0 5
18 39.9843 30.8184 0 -0.0205816 0.0282815 0 5
19 4.999 39.4347 0 0.0010426 -1.85167 0 5
20 14.9959 39.4621 0 0.00374778 -1.8879 0 5
21 24.9942 39.4674 0 0.0057121 -1.88119 0 5
22 34.9934 39.4635 0 -0.00402723 -1.88589 0 5
23 44.9917 39.4312 0 0.00028386 -1.84928 0 5
ITEM: TIMESTEP
2000
ITEM: NUMBER OF ATOMS
23
ITEM: BOX BOUNDS xy xz yz ff ff pp
0.0000000000000000e+00 5.0000000000000000e+01 0.0000000000000000e+00
0.0000000000000000e+00 5.0000000000000000e+01 0.0000000000000000e+00
-5.0000000000000000e+00 5.0000000000000000e+00 0.0000000000000000e+00
ITEM: ATOMS id x y z fx fy fz radius
1 5.00086 4.99985 0 -5.48872e-05 -0.000640749 0 5
2 14.9968 4.99969 0 -8.49199e-05 -0.00118017 0 5
3 24.9939 4.99966 0 0.00057478 -0.00144063 0 5
4 34.9922 4.99972 0 0.000661901 -0.00121566 0 5
5 44.9901 4.99987 0 0.000187444 -0.000616092 0 5
6 9.99373 13.6462 0 -0.00773675 -0.0475344 0 5
7 19.993 13.643 0 0.00108471 -0.0619935 0 5
8 29.991 13.6429 0 0.000109852 -0.0640507 0 5
9 39.9925 13.6472 0 0.012597 -0.0506222 0 5
10 4.99986 22.2798 0 0.000383251 -0.0674607 0 5
11 14.9963 22.2463 0 0.0103769 -0.0710975 0 5
12 24.9922 22.2489 0 0.00233244 -0.0700092 0 5
13 34.9898 22.2458 0 -0.0085322 -0.071833 0 5
14 44.991 22.2814 0 -0.00016198 -0.0697053 0 5
15 10.008 30.786 0 0.0124309 0.0233874 0 5
16 19.997 30.8003 0 0.0110441 0.000533276 0 5
17 29.9908 30.8019 0 -0.00495678 -0.00354894 0 5
18 39.9806 30.7871 0 -0.0163294 0.0139668 0 5
19 4.99898 39.3989 0 7.17446e-05 -1.84475 0 5
20 14.9963 39.4277 0 -0.00155705 -1.85062 0 5
21 24.9946 39.4346 0 -0.000103414 -1.84888 0 5
22 34.9934 39.4292 0 0.00333753 -1.8505 0 5
23 44.9917 39.3936 0 0.000539098 -1.83524 0 5
ITEM: TIMESTEP
2100
ITEM: NUMBER OF ATOMS
23
ITEM: BOX BOUNDS xy xz yz ff ff pp
0.0000000000000000e+00 5.0000000000000000e+01 0.0000000000000000e+00
0.0000000000000000e+00 5.0000000000000000e+01 0.0000000000000000e+00
-5.0000000000000000e+00 5.0000000000000000e+00 0.0000000000000000e+00
ITEM: ATOMS id x y z fx fy fz radius
1 5.00083 4.99976 0 -6.94811e-05 -0.000800991 0 5
2 14.9964 4.99952 0 -0.000282378 -0.0014624 0 5
3 24.9937 4.99946 0 0.000443733 -0.00178057 0 5
4 34.9923 4.99956 0 0.0009451 -0.00149887 0 5
5 44.9901 4.99979 0 0.000233344 -0.000782049 0 5
6 9.99177 13.6386 0 -0.00944722 -0.0534728 0 5
7 19.9924 13.6333 0 0.00197374 -0.0685494 0 5
8 29.9907 13.6329 0 -0.000784485 -0.0703801 0 5
9 39.994 13.6396 0 0.0144381 -0.0574623 0 5
10 4.99967 22.2634 0 -0.000106788 -0.0643712 0 5
11 14.997 22.2207 0 0.0141368 -0.0480584 0 5
12 24.9923 22.2241 0 0.00227187 -0.0527226 0 5
13 34.9888 22.2197 0 -0.0135364 -0.0485359 0 5
14 44.9912 22.2651 0 0.000170856 -0.0681738 0 5
15 10.0125 30.7561 0 0.00436921 -0.0125563 0 5
16 19.9987 30.7726 0 0.00829721 -0.0395411 0 5
17 29.99 30.7743 0 -0.00602418 -0.0438517 0 5
18 39.9761 30.7563 0 -0.00950861 -0.020157 0 5
19 4.99896 39.3611 0 -0.000446225 -1.82926 0 5
20 14.9966 39.3908 0 -0.000866718 -1.80117 0 5
21 24.995 39.3997 0 -0.00315561 -1.80683 0 5
22 34.9935 39.3925 0 0.00607109 -1.8044 0 5
23 44.9918 39.3543 0 0.000913483 -1.81577 0 5
ITEM: TIMESTEP
2200
ITEM: NUMBER OF ATOMS
23
ITEM: BOX BOUNDS xy xz yz ff ff pp
0.0000000000000000e+00 5.0000000000000000e+01 0.0000000000000000e+00
0.0000000000000000e+00 5.0000000000000000e+01 0.0000000000000000e+00
-5.0000000000000000e+00 5.0000000000000000e+00 0.0000000000000000e+00
ITEM: ATOMS id x y z fx fy fz radius
1 5.0008 4.99964 0 -0.000295365 -0.000763236 0 5
2 14.9959 4.99929 0 -0.000604548 -0.00165356 0 5
3 24.9936 4.99918 0 0.00029572 -0.00201478 0 5
4 34.9925 4.99932 0 0.00132952 -0.0017206 0 5
5 44.9901 4.99968 0 0.000290212 -0.000883132 0 5
6 9.98937 13.6285 0 -0.010033 -0.0550909 0 5
7 19.9919 13.6204 0 0.0027284 -0.0685118 0 5
8 29.9903 13.6196 0 -0.00146209 -0.0702828 0 5
9 39.9962 13.6292 0 0.0151569 -0.0593098 0 5
10 4.99948 22.2441 0 -0.000608342 -0.0553707 0 5
11 14.9984 22.1927 0 0.0150275 -0.0283908 0 5
12 24.9924 22.1967 0 0.00196823 -0.0381952 0 5
13 34.9871 22.1913 0 -0.0163908 -0.0288859 0 5
14 44.9914 22.2456 0 0.000738337 -0.0612195 0 5
15 10.0172 30.7256 0 0.00245186 -0.048273 0 5
16 20.0007 30.7431 0 0.00284984 -0.0675155 0 5
17 29.9889 30.7446 0 -0.00565419 -0.0701071 0 5
18 39.9712 30.7246 0 -0.00507641 -0.0511099 0 5
19 4.99891 39.3219 0 -9.59879e-05 -1.81258 0 5
20 14.9968 39.3539 0 0.00112944 -1.76164 0 5
21 24.9953 39.3643 0 -1.22281e-05 -1.77495 0 5
22 34.9939 39.3556 0 -0.0011703 -1.76909 0 5
23 44.9919 39.3142 0 0.000505916 -1.79744 0 5
ITEM: TIMESTEP
2300
ITEM: NUMBER OF ATOMS
23
ITEM: BOX BOUNDS xy xz yz ff ff pp
0.0000000000000000e+00 5.0000000000000000e+01 0.0000000000000000e+00
0.0000000000000000e+00 5.0000000000000000e+01 0.0000000000000000e+00
-5.0000000000000000e+00 5.0000000000000000e+00 0.0000000000000000e+00
ITEM: ATOMS id x y z fx fy fz radius
1 5.00075 4.99948 0 -0.000319922 -0.000831965 0 5
2 14.9954 4.99897 0 -0.00100787 -0.00172036 0 5
3 24.9934 4.99881 0 0.000126616 -0.00208186 0 5
4 34.9927 4.99901 0 0.00181453 -0.00179922 0 5
5 44.9902 4.99953 0 0.0003319 -0.000952938 0 5
6 9.9865 13.6157 0 -0.00954483 -0.0515147 0 5
7 19.9915 13.6043 0 0.0031262 -0.0617143 0 5
8 29.9899 13.603 0 -0.00178585 -0.0632298 0 5
9 39.9991 13.6161 0 0.0146346 -0.055438 0 5
10 4.99925 22.2221 0 -0.0011871 -0.0429231 0 5
11 15.0006 22.1634 0 0.0146003 -0.0164853 0 5
12 24.9927 22.1675 0 0.00115238 -0.0293295 0 5
13 34.9847 22.1614 0 -0.0147777 -0.0169207 0 5
14 44.9917 22.2232 0 0.000992725 -0.0503658 0 5
15 10.0221 30.6928 0 0.00729029 -0.0655777 0 5
16 20.0029 30.7104 0 -0.00210044 -0.066385 0 5
17 29.9876 30.7116 0 -0.00479072 -0.0675867 0 5
18 39.966 30.6905 0 -0.0059298 -0.0618459 0 5
19 4.99886 39.282 0 0.000685396 -1.80269 0 5
20 14.9971 39.3187 0 0.0020948 -1.74891 0 5
21 24.9956 39.3301 0 0.00200273 -1.76633 0 5
22 34.9943 39.3201 0 -0.00782304 -1.75791 0 5
23 44.9921 39.2742 0 -0.000842959 -1.7886 0 5
ITEM: TIMESTEP
2400
ITEM: NUMBER OF ATOMS
23
ITEM: BOX BOUNDS xy xz yz ff ff pp
0.0000000000000000e+00 5.0000000000000000e+01 0.0000000000000000e+00
0.0000000000000000e+00 5.0000000000000000e+01 0.0000000000000000e+00
-5.0000000000000000e+00 5.0000000000000000e+00 0.0000000000000000e+00
ITEM: ATOMS id x y z fx fy fz radius
1 5.00069 4.99928 0 -0.000323527 -0.000844415 0 5
2 14.9949 4.99858 0 -0.00143048 -0.00164221 0 5
3 24.9932 4.99834 0 -1.197e-05 -0.00200886 0 5
4 34.9929 4.9986 0 0.0022819 -0.00168407 0 5
5 44.9902 4.99933 0 0.000349628 -0.000961338 0 5
6 9.98318 13.6006 0 -0.0082872 -0.0428961 0 5
7 19.9913 13.5852 0 0.00309171 -0.0491315 0 5
8 29.9894 13.5833 0 -0.00168058 -0.0501683 0 5
9 40.0027 13.6003 0 0.0130215 -0.0462182 0 5
10 4.99897 22.198 0 -0.000131829 -0.0308933 0 5
11 15.0034 22.1332 0 0.0107913 -0.0118142 0 5
12 24.993 22.1369 0 -8.76507e-05 -0.0250295 0 5
13 34.9816 22.1308 0 -0.00951099 -0.0123416 0 5
14 44.9919 22.1983 0 0.000844241 -0.037744 0 5
15 10.0273 30.6571 0 0.0143558 -0.0569175 0 5
16 20.0049 30.6747 0 -0.00415582 -0.0365802 0 5
17 29.986 30.6755 0 -0.00423913 -0.0368394 0 5
18 39.9604 30.6535 0 -0.0104201 -0.0482843 0 5
19 4.99884 39.242 0 0.00130234 -1.807 0 5
20 14.9975 39.2859 0 0.00100104 -1.76575 0 5
21 24.9959 39.2974 0 -0.00208403 -1.78049 0 5
22 34.9943 39.2866 0 -0.00564503 -1.77247 0 5
23 44.9922 39.2348 0 -0.00197364 -1.79337 0 5
ITEM: TIMESTEP
2500
ITEM: NUMBER OF ATOMS
23
ITEM: BOX BOUNDS xy xz yz ff ff pp
0.0000000000000000e+00 5.0000000000000000e+01 0.0000000000000000e+00
0.0000000000000000e+00 5.0000000000000000e+01 0.0000000000000000e+00
-5.0000000000000000e+00 5.0000000000000000e+00 0.0000000000000000e+00
ITEM: ATOMS id x y z fx fy fz radius
1 5.00061 4.99904 0 -0.000314541 -0.000785332 0 5
2 14.9943 4.99811 0 -0.00180888 -0.0014245 0 5
3 24.9931 4.99777 0 -0.000489279 -0.00172795 0 5
4 34.9933 4.99812 0 0.00306853 -0.00146308 0 5
5 44.9903 4.99909 0 0.000399701 -0.000855916 0 5
6 9.97946 13.5834 0 -0.0064369 -0.0305678 0 5
7 19.9913 13.5638 0 0.00261901 -0.0325289 0 5
8 29.9888 13.5613 0 -0.00116571 -0.0330548 0 5
9 40.0069 13.5823 0 0.0105152 -0.0330203 0 5
10 4.99868 22.1724 0 0.000700645 -0.0284294 0 5
11 15.0067 22.1025 0 0.00579469 -0.0105019 0 5
12 24.9933 22.1051 0 -0.00167247 -0.0212889 0 5
13 34.978 22.0995 0 -0.0033818 -0.0112254 0 5
14 44.9923 22.1717 0 -0.000884978 -0.0303768 0 5
15 10.0332 30.6186 0 0.0142766 -0.0271537 0 5
16 20.0068 30.6372 0 -0.00368721 0.00629542 0 5
17 29.9842 30.6377 0 -0.00404331 0.00636311 0 5
18 39.9544 30.6143 0 -0.0101641 -0.0167847 0 5
19 4.99888 39.2016 0 0.00108903 -1.84337 0 5
20 14.9979 39.2546 0 -0.00350126 -1.7981 0 5
21 24.9962 39.2657 0 -0.00650375 -1.80751 0 5
22 34.9941 39.2542 0 0.00117661 -1.80184 0 5
23 44.9922 39.1955 0 -0.00180761 -1.84378 0 5
ITEM: TIMESTEP
2600
ITEM: NUMBER OF ATOMS
23
ITEM: BOX BOUNDS xy xz yz ff ff pp
0.0000000000000000e+00 5.0000000000000000e+01 0.0000000000000000e+00
0.0000000000000000e+00 5.0000000000000000e+01 0.0000000000000000e+00
-5.0000000000000000e+00 5.0000000000000000e+00 0.0000000000000000e+00
ITEM: ATOMS id x y z fx fy fz radius
1 5.00052 4.99876 0 -0.00029075 -0.000663917 0 5
2 14.9936 4.99756 0 -0.00209352 -0.00109547 0 5
3 24.9929 4.99712 0 -0.000997347 -0.00131385 0 5
4 34.9939 4.99757 0 0.00373459 -0.00112566 0 5
5 44.9904 4.9988 0 0.000470421 -0.000651253 0 5
6 9.97543 13.5647 0 -0.00412484 -0.0164086 0 5
7 19.9913 13.5409 0 0.00178726 -0.0140389 0 5
8 29.9882 13.5377 0 -0.000363408 -0.0141385 0 5
9 40.0116 13.5627 0 0.00707271 -0.0179847 0 5
10 4.99842 22.1455 0 0.000570612 -0.0254614 0 5
11 15.0103 22.0712 0 0.0013077 -0.00794952 0 5
12 24.9935 22.0723 0 -0.00331683 -0.0138188 0 5
13 34.9743 22.0677 0 0.00128142 -0.00867959 0 5
14 44.9925 22.1436 0 -0.000785173 -0.0265894 0 5
15 10.0397 30.5789 0 0.0123295 0.00277761 0 5
16 20.0085 30.6 0 -0.0023543 0.0410199 0 5
17 29.9822 30.6002 0 -0.0033939 0.0408141 0 5
18 39.948 30.5742 0 -0.00561544 0.0133802 0 5
19 4.99895 39.16 0 8.05602e-05 -1.84614 0 5
20 14.9982 39.2235 0 -0.00855176 -1.82979 0 5
21 24.9961 39.2335 0 -0.00495405 -1.82903 0 5
22 34.9939 39.2219 0 0.00374817 -1.82869 0 5
23 44.9922 39.1553 0 -0.000629115 -1.85054 0 5
ITEM: TIMESTEP
2700
ITEM: NUMBER OF ATOMS
23
ITEM: BOX BOUNDS xy xz yz ff ff pp
0.0000000000000000e+00 5.0000000000000000e+01 0.0000000000000000e+00
0.0000000000000000e+00 5.0000000000000000e+01 0.0000000000000000e+00
-5.0000000000000000e+00 5.0000000000000000e+00 0.0000000000000000e+00
ITEM: ATOMS id x y z fx fy fz radius
1 5.00041 4.99845 0 -0.00025401 -0.000495392 0 5
2 14.9928 4.99697 0 -0.00222489 -0.000711788 0 5
3 24.9927 4.9964 0 -0.00150543 -0.000798202 0 5
4 34.9946 4.99696 0 0.00421854 -0.000716682 0 5
5 44.9905 4.99849 0 0.000508047 -0.000409675 0 5
6 9.97121 13.5453 0 -0.00146569 -0.00216982 0 5
7 19.9915 13.5172 0 0.000754683 0.00436403 0 5
8 29.9875 13.5135 0 0.000526943 0.00458265 0 5
9 40.0166 13.5423 0 0.00281159 -0.00300739 0 5
10 4.99819 22.1173 0 0.000504713 -0.0211805 0 5
11 15.014 22.0396 0 -0.00147726 -0.00118913 0 5
12 24.9936 22.0389 0 -0.00447982 -0.000563407 0 5
13 34.9706 22.0355 0 0.00353446 -0.00172812 0 5
14 44.9928 22.1143 0 -0.000663658 -0.0213789 0 5
15 10.0468 30.5392 0 0.00664836 0.0195759 0 5
16 20.0101 30.5646 0 -0.00137233 0.0520966 0 5
17 29.9801 30.5644 0 -0.00183844 0.0512404 0 5
18 39.9412 30.5347 0 0.000838918 0.0275113 0 5
19 4.99903 39.1171 0 -0.00111341 -1.84634 0 5
20 14.998 39.191 0 -0.00815826 -1.84575 0 5
21 24.9959 39.2001 0 -0.000222061 -1.83245 0 5
22 34.9939 39.1882 0 0.000878267 -1.83933 0 5
23 44.9921 39.1136 0 0.000385175 -1.85186 0 5
ITEM: TIMESTEP
2800
ITEM: NUMBER OF ATOMS
23
ITEM: BOX BOUNDS xy xz yz ff ff pp
0.0000000000000000e+00 5.0000000000000000e+01 0.0000000000000000e+00
0.0000000000000000e+00 5.0000000000000000e+01 0.0000000000000000e+00
-5.0000000000000000e+00 5.0000000000000000e+00 0.0000000000000000e+00
ITEM: ATOMS id x y z fx fy fz radius
1 5.00029 4.99812 0 -0.000328728 -0.000203768 0 5
2 14.9919 4.99634 0 -0.00266593 -0.000278179 0 5
3 24.9924 4.99565 0 -0.00147705 -0.000269911 0 5
4 34.9955 4.99632 0 0.00445254 -0.000284714 0 5
5 44.9907 4.99815 0 0.000495229 -0.000166847 0 5
6 9.96693 13.5258 0 0.00180062 0.0105937 0 5
7 19.9916 13.4938 0 -0.000274266 0.0210533 0 5
8 29.9868 13.4894 0 0.0012833 0.0217338 0 5
9 40.0218 13.5218 0 -0.00211537 0.0104952 0 5
10 4.99798 22.0882 0 0.000406202 -0.0154968 0 5
11 15.0176 22.008 0 -0.00238633 0.00978782 0 5
12 24.9935 22.0054 0 -0.00455631 0.017167 0 5
13 34.9671 22.0032 0 0.00381348 0.00953473 0 5
14 44.993 22.0839 0 -0.000514839 -0.0147691 0 5
15 10.0542 30.5003 0 -0.00232914 0.018354 0 5
16 20.0117 30.5316 0 -0.000933103 0.0370072 0 5
17 29.9779 30.531 0 0.00025491 0.0359356 0 5
18 39.9345 30.4964 0 0.0082251 0.0224423 0 5
19 4.99905 39.0728 0 -0.00160831 -1.84408 0 5
20 14.9976 39.1565 0 -0.00127538 -1.83998 0 5
21 24.9956 39.1653 0 0.00158181 -1.8167 0 5
22 34.9939 39.1528 0 -0.0016289 -1.82936 0 5
23 44.9921 39.0702 0 0.000747725 -1.84875 0 5
ITEM: TIMESTEP
2900
ITEM: NUMBER OF ATOMS
23
ITEM: BOX BOUNDS xy xz yz ff ff pp
0.0000000000000000e+00 5.0000000000000000e+01 0.0000000000000000e+00
0.0000000000000000e+00 5.0000000000000000e+01 0.0000000000000000e+00
-5.0000000000000000e+00 5.0000000000000000e+00 0.0000000000000000e+00
ITEM: ATOMS id x y z fx fy fz radius
1 5.00016 4.99778 0 -0.000377153 8.41678e-05 0 5
2 14.9909 4.9957 0 -0.00274261 0.000129348 0 5
3 24.992 4.99489 0 -0.00154175 0.000255569 0 5
4 34.9966 4.99567 0 0.00437585 0.000131595 0 5
5 44.9908 4.99781 0 0.000420532 4.63801e-05 0 5
6 9.96273 13.5067 0 0.00587246 0.0208611 0 5
7 19.9918 13.4714 0 -0.00109569 0.0349902 0 5
8 29.9863 13.4664 0 0.00172153 0.0363458 0 5
9 40.0269 13.5017 0 -0.00749051 0.0216365 0 5
10 4.99779 22.0583 0 0.000230788 -0.00878272 0 5
11 15.0211 21.9768 0 -0.00231826 0.0222659 0 5
12 24.9931 21.9728 0 -0.00324142 0.0354109 0 5
13 34.9637 21.9714 0 0.0035326 0.0223486 0 5
14 44.9932 22.0528 0 -0.000297671 -0.00721343 0 5
15 10.0615 30.4623 0 -0.0117675 0.00403479 0 5
16 20.0132 30.5003 0 -0.000597889 0.00643393 0 5
17 29.9757 30.4993 0 0.00205275 0.00661918 0 5
18 39.9282 30.4591 0 0.0166775 0.00596873 0 5
19 4.999 39.0272 0 -0.00110115 -1.83785 0 5
20 14.997 39.1201 0 0.00506376 -1.81652 0 5
21 24.9953 39.1297 0 0.00063835 -1.79231 0 5
22 34.9938 39.116 0 -0.00246911 -1.80656 0 5
23 44.9921 39.0254 0 0.000640363 -1.84156 0 5
ITEM: TIMESTEP
3000
ITEM: NUMBER OF ATOMS
23
ITEM: BOX BOUNDS xy xz yz ff ff pp
0.0000000000000000e+00 5.0000000000000000e+01 0.0000000000000000e+00
0.0000000000000000e+00 5.0000000000000000e+01 0.0000000000000000e+00
-5.0000000000000000e+00 5.0000000000000000e+00 0.0000000000000000e+00
ITEM: ATOMS id x y z fx fy fz radius
1 5.00001 4.99744 0 -0.000347651 0.000304878 0 5
2 14.9898 4.99507 0 -0.00253996 0.000485834 0 5
3 24.9916 4.99414 0 -0.00157643 0.000731999 0 5
4 34.9979 4.99502 0 0.00394029 0.000500267 0 5
5 44.991 4.99747 0 0.000281362 0.000208333 0 5
6 9.95881 13.4887 0 0.0105255 0.0281537 0 5
7 19.9919 13.4507 0 -0.00155195 0.0457132 0 5
8 29.9858 13.4451 0 0.00174139 0.0475513 0 5
9 40.0316 13.4827 0 -0.0129752 0.0299411 0 5
10 4.99761 22.028 0 1.71288e-05 -0.00160005 0 5
11 15.0245 21.9467 0 -0.00505288 0.0297146 0 5
12 24.9926 21.9419 0 -0.000841826 0.0495971 0 5
13 34.9606 21.9406 0 0.00560113 0.0321731 0 5
14 44.9934 22.0214 0 -4.32265e-05 0.00066164 0 5
15 10.0682 30.4245 0 -0.0175292 -0.00871668 0 5
16 20.0146 30.4693 0 -0.0010755 -0.0212084 0 5
17 29.9736 30.4678 0 0.00288046 -0.0190316 0 5
18 39.9227 30.4221 0 0.0200982 -0.0109257 0 5
19 4.99889 38.9808 0 -0.000147726 -1.829 0 5
20 14.9967 39.083 0 0.00682544 -1.79229 0 5
21 24.9951 39.0945 0 0.000805852 -1.76755 0 5
22 34.9937 39.079 0 0.00024824 -1.78537 0 5
23 44.9921 38.9795 0 0.000385473 -1.83129 0 5
ITEM: TIMESTEP
3100
ITEM: NUMBER OF ATOMS
23
ITEM: BOX BOUNDS xy xz yz ff ff pp
0.0000000000000000e+00 5.0000000000000000e+01 0.0000000000000000e+00
0.0000000000000000e+00 5.0000000000000000e+01 0.0000000000000000e+00
-5.0000000000000000e+00 5.0000000000000000e+00 0.0000000000000000e+00
ITEM: ATOMS id x y z fx fy fz radius
1 4.99984 4.99712 0 -0.000233626 0.000437651 0 5
2 14.9885 4.99446 0 -0.00202038 0.000770495 0 5
3 24.9911 4.99342 0 -0.00157965 0.00112821 0 5
4 34.9995 4.9944 0 0.00311887 0.000799897 0 5