
23 atoms
2 atom types

0 50 xlo xhi
0 50 ylo yhi
-5 5 zlo zhi
0 0 0 xy xz yz

Atoms # sphere

1 2  10 1 5.0 5.0 0
2 1  10 1 15.0 5.0 0
3 1  10 1 25.0 5.0 0
4 1  10 1 35.0 5.0 0
5 1  10 1 45.0 5.0 0
6 2  10 1 10 13.660254037844387 0
7 2  10 1 20 13.660254037844387 0
8 2  10 1 30 13.660254037844387 0
9 1  10 1 40 13.660254037844387 0
10 2  10 1 5.0 22.320508075688775 0
11 2  10 1 15.0 22.320508075688775 0
12 2  10 1 25.0 22.320508075688775 0
13 2  10 1 35.0 22.320508075688775 0
14 2  10 1 45.0 22.320508075688775 0
15 2  10 1 10 30.98076211353316 0
16 2  10 1 20 30.98076211353316 0
17 1  10 1 30 30.98076211353316 0
18 1  10 1 40 30.98076211353316 0
19 1  10 1 5.0 39.64101615137755 0
20 1  10 1 15.0 39.64101615137755 0
21 2  10 1 25.0 39.64101615137755 0
22 2  10 1 35.0 39.64101615137755 0
23 1  10 1 45.0 39.64101615137755 0
